/*--------------------------------*- C++ -*----------------------------------*\
| =========                 |                                                 |
| \\      /  F ield         | OpenFOAM: The Open Source CFD Toolbox           |
|  \\    /   O peration     | Version:  v2006                                 |
|   \\  /    A nd           | Website:  www.openfoam.com                      |
|    \\/     M anipulation  |                                                 |
\*---------------------------------------------------------------------------*/
FoamFile
{
    version     2.0;
    format      ascii;
    class       volScalarField;
    location    "220";
    object      alphat;
}
// * * * * * * * * * * * * * * * * * * * * * * * * * * * * * * * * * * * * * //

dimensions      [1 -1 -1 0 0 0 0];


internalField   nonuniform List<scalar> 
93840
(
2.96757e-08
3.09112e-08
3.28787e-08
3.65626e-08
3.22145e-08
3.76265e-08
3.0702e-08
3.21893e-08
2.93465e-08
2.89014e-08
2.78266e-08
2.65387e-08
2.74392e-08
7.10861e-08
2.20032e-06
1.98122e-05
9.40874e-05
0.000146702
6.90991e-06
2.23009e-05
0.000182775
0.000388325
0.000130195
4.2062e-06
5.36159e-05
3.66836e-05
3.94598e-05
2.83029e-05
1.85171e-05
1.5253e-05
1.65984e-05
1.61218e-05
1.6599e-05
1.50166e-05
1.55026e-05
1.501e-05
1.47474e-05
1.47774e-05
1.43001e-05
1.44473e-05
1.40207e-05
1.41156e-05
1.37652e-05
1.37854e-05
1.35325e-05
1.34915e-05
1.33113e-05
1.32432e-05
1.31007e-05
1.30281e-05
1.29121e-05
1.2835e-05
1.27275e-05
1.26523e-05
1.26164e-05
1.25932e-05
1.25356e-05
1.24805e-05
1.2401e-05
1.23798e-05
1.23528e-05
1.23291e-05
1.23e-05
1.23307e-05
1.23251e-05
1.23262e-05
1.23371e-05
1.23607e-05
1.23362e-05
1.23369e-05
1.23122e-05
1.22889e-05
1.22601e-05
1.22406e-05
1.21863e-05
1.21663e-05
1.21065e-05
1.20803e-05
1.20223e-05
1.20088e-05
1.19292e-05
1.19178e-05
1.1849e-05
1.18547e-05
1.1809e-05
1.17971e-05
1.17812e-05
1.17527e-05
1.17551e-05
1.17328e-05
1.17834e-05
1.18002e-05
1.18605e-05
1.1908e-05
1.19874e-05
1.2076e-05
1.21741e-05
1.22671e-05
1.2347e-05
1.24262e-05
1.24865e-05
1.25326e-05
1.25766e-05
1.27256e-05
1.28526e-05
1.28225e-05
1.27919e-05
1.28881e-05
1.3007e-05
1.31368e-05
1.32814e-05
1.34222e-05
1.35533e-05
1.369e-05
1.37923e-05
1.38761e-05
1.39433e-05
1.40644e-05
1.41853e-05
1.43601e-05
1.45399e-05
1.47267e-05
1.49264e-05
1.51189e-05
1.5284e-05
1.54282e-05
1.56764e-05
1.57184e-05
1.59116e-05
1.59559e-05
1.60199e-05
1.61176e-05
1.60923e-05
1.62179e-05
1.62322e-05
1.62734e-05
1.62883e-05
1.63525e-05
1.63545e-05
1.64337e-05
1.64537e-05
1.64874e-05
1.65136e-05
1.65315e-05
1.65666e-05
1.65868e-05
1.66189e-05
1.66439e-05
1.66344e-05
1.66427e-05
1.66317e-05
1.66381e-05
1.66065e-05
1.65848e-05
1.65283e-05
1.64671e-05
1.6387e-05
1.62934e-05
1.61971e-05
1.60916e-05
1.59813e-05
1.58188e-05
1.56295e-05
1.54224e-05
1.52002e-05
1.48562e-05
1.42738e-05
1.3094e-05
1.07938e-05
7.89703e-06
8.74452e-06
1.18756e-05
7.42163e-06
2.41127e-11
1.75725e-07
1.56382e-06
9.07346e-07
1.48057e-07
9.09972e-08
1.29818e-08
1.09435e-10
5.02842e-07
2.17625e-07
3.1834e-07
3.93827e-09
3.97137e-06
6.71983e-06
1.02193e-06
2.05439e-06
1.40463e-05
1.30784e-05
5.95123e-06
8.57678e-06
1.41279e-05
1.7441e-05
1.8404e-05
1.88461e-05
1.878e-05
1.89297e-05
1.86225e-05
1.86059e-05
1.84677e-05
1.83863e-05
1.82422e-05
1.8176e-05
1.80162e-05
1.79452e-05
1.77671e-05
1.76935e-05
1.7475e-05
1.74237e-05
1.7199e-05
1.71211e-05
1.68664e-05
1.6787e-05
1.65366e-05
1.65013e-05
1.62769e-05
1.62134e-05
1.58782e-05
1.59551e-05
1.55998e-05
1.5573e-05
1.53346e-05
1.53108e-05
1.50747e-05
1.50688e-05
1.48217e-05
1.47873e-05
1.45515e-05
1.44943e-05
1.4346e-05
1.42097e-05
1.40421e-05
1.39535e-05
1.37676e-05
1.36105e-05
1.36305e-05
1.3375e-05
1.34147e-05
1.31283e-05
1.32527e-05
1.29098e-05
1.30032e-05
1.26897e-05
1.28325e-05
1.24875e-05
1.26466e-05
1.20045e-05
1.03408e-05
6.28571e-06
3.33409e-06
2.64202e-06
2.6067e-06
2.83799e-06
3.11961e-06
3.47437e-06
3.48348e-06
3.53161e-06
3.66467e-06
3.83896e-06
3.72068e-06
2.54502e-06
1.50558e-06
8.78329e-07
3.53493e-07
1.52103e-07
1.39858e-07
1.22873e-07
1.33311e-07
1.99517e-07
2.923e-07
5.38146e-07
8.63148e-07
1.02533e-06
9.7604e-07
1.38376e-06
1.77178e-06
1.88884e-06
1.98301e-06
2.0051e-06
1.92717e-06
1.73457e-06
1.51829e-06
1.49851e-06
1.54706e-06
2.1178e-06
3.25821e-06
4.20136e-06
4.66678e-06
4.5774e-06
4.13337e-06
3.11455e-06
2.15221e-06
2.28999e-06
4.7995e-06
6.18148e-06
7.22959e-06
7.92089e-06
8.50846e-06
8.95794e-06
9.34259e-06
9.65323e-06
9.90092e-06
1.01104e-05
1.02841e-05
1.04442e-05
1.05692e-05
1.06664e-05
1.07405e-05
1.07944e-05
1.08313e-05
1.08574e-05
1.08779e-05
1.0877e-05
1.08664e-05
1.08207e-05
1.07678e-05
1.06817e-05
1.06151e-05
1.05279e-05
1.04708e-05
1.03683e-05
1.0214e-05
9.89233e-06
9.39613e-06
8.59419e-06
7.83377e-06
7.13906e-06
7.12169e-06
7.17368e-06
7.57506e-06
8.18137e-06
8.08277e-06
1.0545e-05
8.77927e-06
1.44943e-05
2.02752e-05
2.2538e-05
1.33158e-05
2.10736e-05
3.7229e-05
3.55078e-05
5.67839e-05
1.29401e-06
0.000145192
0.000410441
0.000209902
2.68506e-05
1.2714e-05
0.000157641
0.000100655
2.16981e-05
2.48308e-06
8.2732e-08
2.85005e-08
2.66592e-08
2.7923e-08
2.86251e-08
2.91734e-08
3.19979e-08
3.05259e-08
3.77346e-08
3.21614e-08
3.63449e-08
3.29419e-08
3.07968e-08
2.9545e-08
2.93382e-08
3.07835e-08
3.28769e-08
3.68447e-08
3.23179e-08
3.76795e-08
3.07378e-08
3.17654e-08
2.93232e-08
2.84726e-08
2.76827e-08
2.64389e-08
2.80655e-08
6.15767e-08
1.88643e-06
1.76816e-05
8.63238e-05
0.000133804
1.25112e-06
1.75894e-05
0.000152304
0.000357411
0.000112543
5.75699e-06
5.0638e-05
3.81036e-05
4.22429e-05
3.4697e-05
2.68253e-05
2.1948e-05
1.72477e-05
1.70162e-05
1.65415e-05
1.56947e-05
1.72657e-05
1.52957e-05
1.75098e-05
1.54283e-05
1.76726e-05
1.57396e-05
1.78625e-05
1.60002e-05
1.79409e-05
1.62389e-05
1.8016e-05
1.64682e-05
1.79309e-05
1.6772e-05
1.77413e-05
1.70945e-05
1.76078e-05
1.7277e-05
1.75904e-05
1.73553e-05
1.75844e-05
1.73852e-05
1.7655e-05
1.74922e-05
1.76801e-05
1.75211e-05
1.76726e-05
1.75511e-05
1.7688e-05
1.75453e-05
1.76883e-05
1.75703e-05
1.76747e-05
1.76015e-05
1.76841e-05
1.76182e-05
1.76875e-05
1.76286e-05
1.76967e-05
1.76392e-05
1.7712e-05
1.76534e-05
1.77251e-05
1.76624e-05
1.77223e-05
1.7684e-05
1.77371e-05
1.77171e-05
1.7741e-05
1.77228e-05
1.77393e-05
1.77515e-05
1.77666e-05
1.77649e-05
1.77749e-05
1.77663e-05
1.77593e-05
1.77486e-05
1.77406e-05
1.77207e-05
1.76977e-05
1.76692e-05
1.76389e-05
1.76025e-05
1.75597e-05
1.74984e-05
1.74441e-05
1.73584e-05
1.72569e-05
1.71209e-05
1.70292e-05
1.70079e-05
1.6927e-05
1.67927e-05
1.66684e-05
1.65291e-05
1.63899e-05
1.62362e-05
1.60831e-05
1.58953e-05
1.57098e-05
1.55119e-05
1.53022e-05
1.51196e-05
1.49643e-05
1.48522e-05
1.47424e-05
1.46326e-05
1.45844e-05
1.45088e-05
1.44923e-05
1.45173e-05
1.44533e-05
1.4542e-05
1.44603e-05
1.44288e-05
1.44354e-05
1.44113e-05
1.43763e-05
1.43266e-05
1.42791e-05
1.41801e-05
1.41616e-05
1.40732e-05
1.4e-05
1.39162e-05
1.37987e-05
1.36979e-05
1.36002e-05
1.34885e-05
1.33635e-05
1.32205e-05
1.30632e-05
1.29009e-05
1.27127e-05
1.25397e-05
1.23272e-05
1.21118e-05
1.18465e-05
1.15518e-05
1.11947e-05
1.0763e-05
1.0277e-05
9.783e-06
9.30237e-06
8.79918e-06
8.08535e-06
7.00993e-06
5.76209e-06
5.00959e-06
4.90008e-06
4.68211e-06
3.59233e-06
1.87269e-06
3.12004e-07
9.23792e-08
2.43169e-07
4.95297e-07
7.55495e-07
7.10579e-09
4.02922e-07
5.30324e-08
5.8235e-08
1.27975e-08
3.96594e-08
6.32465e-08
1.93197e-07
2.22628e-11
9.869e-08
1.05234e-07
5.27083e-08
2.15617e-09
3.05888e-09
7.34548e-11
2.74925e-08
1.08025e-06
3.87183e-07
6.61666e-07
2.62697e-07
2.31708e-06
4.75498e-06
5.49683e-06
5.33172e-06
5.5915e-06
6.98316e-06
8.31131e-06
9.24067e-06
9.73975e-06
1.04152e-05
1.11384e-05
1.18749e-05
1.24291e-05
1.29204e-05
1.3221e-05
1.35009e-05
1.36593e-05
1.38268e-05
1.38981e-05
1.40332e-05
1.40303e-05
1.41062e-05
1.41208e-05
1.42387e-05
1.42417e-05
1.42598e-05
1.4175e-05
1.43335e-05
1.41695e-05
1.42556e-05
1.42277e-05
1.43373e-05
1.43066e-05
1.44267e-05
1.43582e-05
1.44751e-05
1.44028e-05
1.44947e-05
1.43256e-05
1.43699e-05
1.41571e-05
1.42807e-05
1.41056e-05
1.42192e-05
1.41895e-05
1.41913e-05
1.41927e-05
1.41367e-05
1.41624e-05
1.40905e-05
1.40331e-05
1.41287e-05
1.3799e-05
1.41715e-05
1.40056e-05
1.3645e-05
1.15778e-05
1.3556e-05
1.67925e-05
1.83471e-05
1.85271e-05
1.8929e-05
2.11811e-05
2.19423e-05
2.14305e-05
2.09947e-05
2.02518e-05
1.91717e-05
1.65499e-05
1.10791e-05
4.84228e-06
2.90243e-06
2.62216e-06
2.54916e-06
2.46303e-06
2.4564e-06
2.58401e-06
2.9144e-06
3.23493e-06
3.90318e-06
4.65656e-06
5.42438e-06
6.22033e-06
7.76595e-06
9.13586e-06
8.84379e-06
8.5355e-06
6.64069e-06
5.01553e-06
4.56523e-06
4.93361e-06
5.96434e-06
7.23709e-06
8.671e-06
1.04592e-05
1.19844e-05
1.23862e-05
1.18978e-05
1.13982e-05
1.08009e-05
1.02089e-05
1.00717e-05
9.27379e-06
9.9709e-06
1.0282e-05
1.05394e-05
1.06845e-05
1.08291e-05
1.09483e-05
1.1129e-05
1.12823e-05
1.15214e-05
1.17796e-05
1.21462e-05
1.25002e-05
1.28722e-05
1.32411e-05
1.36654e-05
1.40868e-05
1.4582e-05
1.51133e-05
1.57122e-05
1.63504e-05
1.70443e-05
1.77788e-05
1.86015e-05
1.9553e-05
2.07153e-05
2.2103e-05
2.36873e-05
2.52452e-05
2.67227e-05
2.79776e-05
2.92764e-05
3.04452e-05
3.17096e-05
3.26753e-05
3.39194e-05
3.55633e-05
3.788e-05
3.83272e-05
3.91924e-05
3.86851e-05
4.80336e-05
4.81101e-05
5.4432e-05
3.29676e-05
2.16519e-05
3.33135e-05
3.3093e-05
5.82679e-05
6.22256e-06
0.000160494
0.000437647
0.000241006
3.18511e-05
2.0039e-05
0.000169705
0.000107876
2.3807e-05
2.80525e-06
9.36065e-08
2.78312e-08
2.67426e-08
2.78279e-08
2.89341e-08
2.90618e-08
3.23251e-08
3.05318e-08
3.77371e-08
3.22211e-08
3.64676e-08
3.26908e-08
3.09544e-08
2.95804e-08
2.97991e-08
3.10309e-08
3.28111e-08
3.671e-08
3.24615e-08
3.77611e-08
3.062e-08
3.22402e-08
2.91555e-08
2.88112e-08
2.76683e-08
2.6768e-08
2.74774e-08
5.50884e-08
1.57245e-06
1.55458e-05
7.82026e-05
0.000120283
3.51128e-08
1.3326e-05
0.000122461
0.000321718
9.49145e-05
1.31339e-06
4.58493e-05
3.76472e-05
4.24088e-05
3.93797e-05
3.55256e-05
3.19568e-05
2.96736e-05
2.81135e-05
2.68464e-05
2.77285e-05
2.65158e-05
2.74603e-05
2.67883e-05
2.73312e-05
2.70008e-05
2.74231e-05
2.7086e-05
2.75212e-05
2.72033e-05
2.75646e-05
2.73572e-05
2.75668e-05
2.75283e-05
2.75662e-05
2.76524e-05
2.76205e-05
2.77266e-05
2.76703e-05
2.77923e-05
2.77014e-05
2.78405e-05
2.7743e-05
2.79707e-05
2.78293e-05
2.80066e-05
2.78412e-05
2.79999e-05
2.78532e-05
2.80067e-05
2.78536e-05
2.8012e-05
2.78841e-05
2.8004e-05
2.7935e-05
2.80152e-05
2.79447e-05
2.80154e-05
2.79327e-05
2.80047e-05
2.79138e-05
2.79877e-05
2.78783e-05
2.79435e-05
2.78191e-05
2.78555e-05
2.77602e-05
2.77574e-05
2.76746e-05
2.76212e-05
2.75214e-05
2.74641e-05
2.73611e-05
2.73078e-05
2.71566e-05
2.7058e-05
2.68938e-05
2.67455e-05
2.65806e-05
2.64066e-05
2.62183e-05
2.60164e-05
2.58087e-05
2.55915e-05
2.53547e-05
2.51103e-05
2.48162e-05
2.45425e-05
2.41872e-05
2.38306e-05
2.34185e-05
2.30989e-05
2.28516e-05
2.24805e-05
2.20362e-05
2.16109e-05
2.1151e-05
2.0703e-05
2.02198e-05
1.97474e-05
1.92195e-05
1.87165e-05
1.81913e-05
1.76678e-05
1.71803e-05
1.67542e-05
1.63721e-05
1.60192e-05
1.56609e-05
1.54192e-05
1.51321e-05
1.49629e-05
1.47958e-05
1.45666e-05
1.45243e-05
1.42283e-05
1.40914e-05
1.38994e-05
1.37422e-05
1.35037e-05
1.32873e-05
1.30437e-05
1.27626e-05
1.2538e-05
1.22313e-05
1.19416e-05
1.16109e-05
1.12728e-05
1.09136e-05
1.05807e-05
1.01855e-05
9.78872e-06
9.31983e-06
8.81606e-06
8.26062e-06
7.64171e-06
7.02156e-06
6.36983e-06
5.69462e-06
4.9829e-06
4.33601e-06
3.77356e-06
3.1325e-06
2.27091e-06
1.51866e-06
1.29212e-06
1.29948e-06
8.14425e-07
2.998e-07
1.78115e-07
1.44046e-07
3.71513e-08
1.65348e-08
7.56274e-09
1.68893e-08
4.27657e-08
7.67358e-08
8.37006e-08
1.44297e-07
1.04841e-07
7.5962e-08
2.8829e-09
5.7486e-09
2.89908e-09
2.36022e-08
8.83633e-08
1.34741e-07
1.05977e-07
1.5505e-07
1.67853e-07
4.65826e-08
2.82517e-07
2.66998e-07
3.25747e-07
3.32929e-07
1.49669e-07
1.63459e-07
2.36281e-07
1.88078e-07
1.98161e-08
4.54617e-08
5.21739e-07
6.38636e-07
6.68716e-08
6.44546e-08
6.42644e-07
1.06584e-06
1.27487e-06
1.48915e-06
1.83554e-06
2.53195e-06
3.34381e-06
4.14339e-06
4.90421e-06
5.67216e-06
6.43897e-06
7.21257e-06
7.9467e-06
8.52933e-06
9.08783e-06
9.5843e-06
1.01253e-05
1.06023e-05
1.11247e-05
1.14499e-05
1.18287e-05
1.20242e-05
1.251e-05
1.26289e-05
1.30805e-05
1.32166e-05
1.36316e-05
1.37466e-05
1.42462e-05
1.42831e-05
1.47396e-05
1.47566e-05
1.52264e-05
1.51143e-05
1.55073e-05
1.52922e-05
1.57351e-05
1.56046e-05
1.59503e-05
1.60721e-05
1.61735e-05
1.64698e-05
1.63616e-05
1.67779e-05
1.6569e-05
1.6866e-05
1.69773e-05
1.67451e-05
1.72456e-05
1.71872e-05
1.72057e-05
1.50683e-05
1.79571e-05
2.4336e-05
2.89558e-05
3.18867e-05
3.47054e-05
4.0653e-05
4.35504e-05
4.33195e-05
4.32053e-05
4.27572e-05
4.13273e-05
3.71995e-05
2.92865e-05
1.66678e-05
7.95418e-06
6.27254e-06
5.95822e-06
5.63695e-06
5.5944e-06
5.8758e-06
6.47646e-06
7.00568e-06
8.24816e-06
9.69719e-06
1.11282e-05
1.24665e-05
1.54922e-05
1.83472e-05
1.78317e-05
1.80662e-05
1.44444e-05
1.03136e-05
7.71417e-06
8.42913e-06
1.01427e-05
1.27009e-05
1.70657e-05
2.231e-05
2.65103e-05
2.79787e-05
2.68248e-05
2.54669e-05
2.36924e-05
2.29989e-05
1.88938e-05
1.82087e-05
2.01984e-05
2.1293e-05
2.21289e-05
2.28077e-05
2.33933e-05
2.39874e-05
2.46247e-05
2.52425e-05
2.59192e-05
2.65764e-05
2.72675e-05
2.79311e-05
2.8618e-05
2.92937e-05
2.99998e-05
3.07238e-05
3.15245e-05
3.23882e-05
3.33365e-05
3.43489e-05
3.54365e-05
3.66001e-05
3.79055e-05
3.9424e-05
4.12695e-05
4.34284e-05
4.5814e-05
4.80493e-05
5.00183e-05
5.15379e-05
5.29248e-05
5.39438e-05
5.50593e-05
5.58105e-05
5.77238e-05
6.12218e-05
6.45469e-05
6.61151e-05
6.93732e-05
6.97833e-05
7.33692e-05
6.96426e-05
7.13377e-05
5.7128e-05
2.71132e-05
3.27857e-05
3.07307e-05
5.96288e-05
4.2732e-08
0.000174334
0.000457079
0.00027287
3.79405e-05
2.77651e-05
0.000181318
0.000114917
2.59776e-05
3.13776e-06
1.13139e-07
2.87699e-08
2.68047e-08
2.79018e-08
2.85316e-08
2.90474e-08
3.18518e-08
3.04255e-08
3.76737e-08
3.22198e-08
3.66632e-08
3.28834e-08
3.07678e-08
2.95596e-08
2.95716e-08
3.07731e-08
3.28689e-08
3.64737e-08
3.25742e-08
3.7702e-08
3.06082e-08
3.16601e-08
2.93666e-08
2.83521e-08
2.75752e-08
2.63179e-08
2.70655e-08
4.74341e-08
1.29121e-06
1.3612e-05
7.06529e-05
0.000107849
1.30389e-07
9.96997e-06
9.64188e-05
0.000285579
7.92037e-05
2.69693e-06
4.13923e-05
3.75523e-05
4.20444e-05
4.00834e-05
3.84401e-05
3.70858e-05
3.48792e-05
3.46302e-05
3.40753e-05
3.3756e-05
3.396e-05
3.36713e-05
3.3941e-05
3.38308e-05
3.40028e-05
3.40245e-05
3.40889e-05
3.41887e-05
3.41938e-05
3.43003e-05
3.43123e-05
3.43998e-05
3.44443e-05
3.44788e-05
3.45623e-05
3.45634e-05
3.4655e-05
3.46366e-05
3.47348e-05
3.46967e-05
3.4807e-05
3.47513e-05
3.49139e-05
3.48237e-05
3.49614e-05
3.48516e-05
3.49483e-05
3.48688e-05
3.49519e-05
3.4857e-05
3.49572e-05
3.48489e-05
3.49536e-05
3.48702e-05
3.49263e-05
3.48364e-05
3.48878e-05
3.47765e-05
3.48172e-05
3.4697e-05
3.47284e-05
3.45787e-05
3.45923e-05
3.44216e-05
3.43953e-05
3.42421e-05
3.41624e-05
3.40149e-05
3.38726e-05
3.36989e-05
3.35501e-05
3.33336e-05
3.31932e-05
3.29121e-05
3.27104e-05
3.24122e-05
3.21397e-05
3.18295e-05
3.15096e-05
3.11717e-05
3.0812e-05
3.0441e-05
3.00498e-05
2.96336e-05
2.92061e-05
2.87071e-05
2.82397e-05
2.76627e-05
2.71167e-05
2.6471e-05
2.59022e-05
2.54285e-05
2.48519e-05
2.41784e-05
2.35122e-05
2.27991e-05
2.21104e-05
2.13717e-05
2.06645e-05
1.98859e-05
1.91514e-05
1.83924e-05
1.76585e-05
1.69565e-05
1.63459e-05
1.57787e-05
1.52589e-05
1.47249e-05
1.43387e-05
1.38823e-05
1.35822e-05
1.32487e-05
1.28884e-05
1.26672e-05
1.22378e-05
1.1943e-05
1.15649e-05
1.1267e-05
1.08264e-05
1.04674e-05
1.00148e-05
9.56377e-06
9.11468e-06
8.5952e-06
8.04406e-06
7.45543e-06
6.80979e-06
6.14889e-06
5.507e-06
4.82336e-06
4.17722e-06
3.51572e-06
2.89441e-06
2.32932e-06
1.71744e-06
1.14788e-06
7.54439e-07
5.66694e-07
3.35595e-07
1.5848e-07
1.12078e-07
8.72193e-08
2.06766e-08
1.96242e-08
6.68038e-08
1.07943e-07
5.64219e-08
7.65725e-08
3.36812e-08
1.60414e-08
1.54074e-08
2.31516e-08
1.50434e-08
6.21003e-08
1.06259e-07
1.79675e-07
1.48825e-07
8.04563e-08
2.20747e-08
1.67694e-08
1.92569e-08
1.9102e-08
4.97967e-08
2.48441e-08
1.32031e-07
3.0447e-07
1.28308e-07
1.53378e-09
2.59692e-08
2.22678e-07
2.9106e-07
1.66493e-07
5.20918e-08
3.50176e-08
1.37043e-08
8.13674e-09
1.1248e-08
3.64621e-08
8.30768e-09
9.76249e-09
4.35933e-08
3.98562e-08
3.99633e-09
1.16905e-08
2.58331e-08
1.74519e-08
1.55625e-08
1.61255e-08
1.40743e-08
2.20757e-08
6.50841e-08
1.09447e-07
2.6258e-07
4.62854e-07
8.64969e-07
1.24896e-06
1.80256e-06
2.21341e-06
2.64515e-06
2.98121e-06
3.63739e-06
4.32541e-06
5.1929e-06
5.73916e-06
6.48927e-06
7.03297e-06
8.04909e-06
8.53836e-06
9.45093e-06
9.83463e-06
1.06424e-05
1.08951e-05
1.17443e-05
1.19239e-05
1.27375e-05
1.28305e-05
1.36447e-05
1.36593e-05
1.43558e-05
1.43131e-05
1.49562e-05
1.4945e-05
1.54792e-05
1.57823e-05
1.59876e-05
1.65592e-05
1.63925e-05
1.72334e-05
1.6861e-05
1.75665e-05
1.75237e-05
1.77976e-05
1.78813e-05
1.83335e-05
1.87979e-05
1.71444e-05
2.07272e-05
2.903e-05
3.61901e-05
4.16292e-05
4.67273e-05
5.62369e-05
6.20229e-05
6.17586e-05
6.21191e-05
6.22945e-05
6.11504e-05
5.62885e-05
4.69746e-05
3.20301e-05
1.62296e-05
1.03092e-05
9.45587e-06
9.05027e-06
9.1598e-06
9.6518e-06
1.04232e-05
1.09476e-05
1.25695e-05
1.45494e-05
1.64857e-05
1.81304e-05
2.24663e-05
2.65982e-05
2.59089e-05
2.67425e-05
2.24745e-05
1.59685e-05
1.13683e-05
1.10417e-05
1.26577e-05
1.77789e-05
2.65611e-05
3.57385e-05
4.18737e-05
4.42418e-05
4.35096e-05
4.21516e-05
3.95504e-05
3.53352e-05
2.85653e-05
3.03053e-05
3.37554e-05
3.57843e-05
3.75027e-05
3.84652e-05
3.93809e-05
4.0125e-05
4.09051e-05
4.16191e-05
4.24495e-05
4.3218e-05
4.39964e-05
4.47588e-05
4.55472e-05
4.6315e-05
4.71378e-05
4.79873e-05
4.89418e-05
4.99773e-05
5.11245e-05
5.2354e-05
5.36755e-05
5.50865e-05
5.66587e-05
5.84542e-05
6.05917e-05
6.30048e-05
6.55862e-05
6.79229e-05
6.98599e-05
7.10844e-05
7.18611e-05
7.20105e-05
7.21124e-05
7.17854e-05
7.32427e-05
7.66584e-05
7.85319e-05
7.76964e-05
7.86752e-05
7.81532e-05
8.12783e-05
7.91979e-05
7.92666e-05
7.36857e-05
3.40551e-05
3.19878e-05
2.79994e-05
5.83135e-05
4.25367e-06
0.000187212
0.000475843
0.000301547
4.418e-05
3.5078e-05
0.000191349
0.000120968
2.7917e-05
3.44939e-06
1.2906e-07
2.90173e-08
2.71461e-08
2.80997e-08
2.89866e-08
2.90778e-08
3.22881e-08
3.06543e-08
3.76607e-08
3.2196e-08
3.66365e-08
3.26504e-08
3.10654e-08
2.96249e-08
2.97016e-08
3.10094e-08
3.27153e-08
3.63953e-08
3.25717e-08
3.76949e-08
3.10454e-08
3.21347e-08
2.92334e-08
2.87325e-08
2.76e-08
2.67617e-08
2.73094e-08
4.36578e-08
1.01235e-06
1.17069e-05
6.28412e-05
9.49822e-05
3.43859e-07
6.99801e-06
7.21466e-05
0.000245689
6.38749e-05
2.98675e-07
3.63107e-05
3.6266e-05
4.20511e-05
4.20477e-05
4.10375e-05
4.05585e-05
3.96809e-05
3.93658e-05
3.86875e-05
3.90681e-05
3.85362e-05
3.9017e-05
3.866e-05
3.90983e-05
3.8871e-05
3.9243e-05
3.90841e-05
3.93838e-05
3.92873e-05
3.94949e-05
3.94642e-05
3.96273e-05
3.96339e-05
3.97384e-05
3.97802e-05
3.98426e-05
3.99083e-05
3.99319e-05
4.00121e-05
4.00149e-05
4.01044e-05
4.00679e-05
4.01919e-05
4.01331e-05
4.02512e-05
4.01603e-05
4.0248e-05
4.01504e-05
4.0243e-05
4.01329e-05
4.02015e-05
4.01109e-05
4.01543e-05
4.00775e-05
4.00692e-05
3.99789e-05
3.99668e-05
3.98456e-05
3.98191e-05
3.96711e-05
3.96358e-05
3.94456e-05
3.93815e-05
3.91665e-05
3.90526e-05
3.884e-05
3.86655e-05
3.84434e-05
3.82011e-05
3.7946e-05
3.76887e-05
3.73552e-05
3.71089e-05
3.66955e-05
3.63834e-05
3.59458e-05
3.55383e-05
3.50745e-05
3.45993e-05
3.41047e-05
3.35756e-05
3.30305e-05
3.24522e-05
3.18483e-05
3.12261e-05
3.05179e-05
2.98536e-05
2.90609e-05
2.83303e-05
2.74344e-05
2.66039e-05
2.59147e-05
2.51521e-05
2.4266e-05
2.33758e-05
2.24301e-05
2.1527e-05
2.05628e-05
1.96617e-05
1.8671e-05
1.77523e-05
1.68067e-05
1.59176e-05
1.50451e-05
1.43005e-05
1.35748e-05
1.29291e-05
1.22282e-05
1.17224e-05
1.10937e-05
1.06691e-05
1.01461e-05
9.67322e-06
9.23056e-06
8.68075e-06
8.16095e-06
7.58313e-06
7.06409e-06
6.36546e-06
5.78811e-06
5.06625e-06
4.44515e-06
3.77666e-06
3.16323e-06
2.53837e-06
2.03234e-06
1.47562e-06
1.0315e-06
6.33041e-07
4.07465e-07
2.05732e-07
1.15852e-07
6.10709e-08
7.9013e-08
2.49203e-08
3.10505e-08
2.40499e-08
5.7432e-08
4.53853e-08
4.37055e-08
1.73221e-08
2.09145e-08
1.64132e-08
3.9965e-08
3.27315e-08
6.18076e-08
4.42896e-08
5.90023e-08
2.08696e-08
2.05127e-08
1.18285e-08
3.43186e-08
5.65567e-08
9.73964e-08
8.76165e-08
7.90729e-08
5.14247e-08
3.90943e-08
3.4389e-08
1.61243e-08
3.00487e-08
3.23102e-08
1.67134e-07
1.18277e-07
6.83245e-08
4.57067e-08
3.24803e-09
2.30478e-08
4.59195e-07
6.21747e-07
3.42355e-07
1.27042e-08
3.21434e-08
6.21235e-09
1.01056e-08
2.50846e-09
3.91991e-09
1.63997e-09
1.65621e-09
3.9254e-10
9.95182e-09
1.5277e-09
7.0947e-09
1.8661e-09
1.66343e-08
4.70909e-09
2.30274e-08
9.01114e-09
3.7896e-08
9.82729e-09
5.4812e-08
9.51164e-09
5.96202e-08
1.15037e-08
7.53565e-08
3.06928e-08
1.35132e-07
5.90935e-08
2.47829e-07
6.70839e-08
3.22088e-07
2.69441e-07
8.57247e-07
7.59324e-07
1.41439e-06
1.42823e-06
2.38939e-06
2.74234e-06
3.87664e-06
4.20299e-06
5.32505e-06
5.68796e-06
6.99659e-06
7.36272e-06
8.58523e-06
8.85701e-06
1.00505e-05
1.02384e-05
1.12868e-05
1.13911e-05
1.22994e-05
1.24752e-05
1.31683e-05
1.36911e-05
1.39673e-05
1.48579e-05
1.4705e-05
1.58675e-05
1.54387e-05
1.65564e-05
1.63638e-05
1.71804e-05
1.69556e-05
1.76521e-05
1.8751e-05
1.80729e-05
2.20415e-05
3.20004e-05
4.12853e-05
4.93103e-05
5.68768e-05
6.98625e-05
7.87378e-05
7.92372e-05
8.01665e-05
8.11512e-05
8.08026e-05
7.57281e-05
6.54588e-05
4.89313e-05
2.91283e-05
1.64245e-05
1.37204e-05
1.29523e-05
1.31389e-05
1.38281e-05
1.49055e-05
1.57778e-05
1.75657e-05
1.97757e-05
2.20516e-05
2.38526e-05
2.93646e-05
3.45597e-05
3.37975e-05
3.50919e-05
3.08611e-05
2.24197e-05
1.57221e-05
1.38018e-05
1.54548e-05
2.43164e-05
3.79648e-05
5.14368e-05
5.91659e-05
6.23856e-05
6.23013e-05
6.10148e-05
5.71709e-05
4.90444e-05
4.15614e-05
4.56703e-05
5.12029e-05
5.44316e-05
5.67314e-05
5.79631e-05
5.89834e-05
5.97225e-05
6.0474e-05
6.11485e-05
6.20879e-05
6.28705e-05
6.36615e-05
6.44428e-05
6.52749e-05
6.60717e-05
6.69667e-05
6.78907e-05
6.89478e-05
7.00991e-05
7.13769e-05
7.27423e-05
7.41979e-05
7.57298e-05
7.73973e-05
7.92453e-05
8.13683e-05
8.36821e-05
8.61068e-05
8.81991e-05
8.98362e-05
9.0487e-05
9.05065e-05
8.92954e-05
8.77972e-05
8.54467e-05
8.49618e-05
8.4677e-05
8.38565e-05
7.9589e-05
7.88118e-05
7.77341e-05
8.06374e-05
8.1329e-05
8.33082e-05
8.32785e-05
4.05602e-05
3.14065e-05
2.68204e-05
5.70845e-05
9.5061e-07
0.000195362
0.000487922
0.000330566
5.11103e-05
4.26482e-05
0.000200955
0.000126861
2.98642e-05
3.76554e-06
1.51331e-07
2.92409e-08
2.68584e-08
2.8209e-08
2.85689e-08
2.90864e-08
3.1822e-08
3.05963e-08
3.77979e-08
3.23122e-08
3.66136e-08
3.2896e-08
3.09137e-08
2.9605e-08
2.95735e-08
3.08234e-08
3.27779e-08
3.63245e-08
3.27329e-08
3.7811e-08
3.0344e-08
3.15537e-08
2.91991e-08
2.82782e-08
2.74779e-08
2.60549e-08
2.61327e-08
3.77684e-08
7.49117e-07
9.80981e-06
5.4792e-05
8.17654e-05
7.71149e-09
4.29135e-06
5.05296e-05
0.000201961
4.92331e-05
1.93003e-06
3.09126e-05
3.37554e-05
3.97419e-05
4.10794e-05
4.17127e-05
4.16915e-05
4.1613e-05
4.17461e-05
4.15454e-05
4.18036e-05
4.16882e-05
4.20349e-05
4.19176e-05
4.22999e-05
4.21924e-05
4.25642e-05
4.24731e-05
4.27921e-05
4.27436e-05
4.29678e-05
4.29764e-05
4.31665e-05
4.31874e-05
4.33282e-05
4.33688e-05
4.34775e-05
4.35266e-05
4.36047e-05
4.36613e-05
4.37112e-05
4.37661e-05
4.37809e-05
4.38415e-05
4.38438e-05
4.39022e-05
4.38747e-05
4.38925e-05
4.38722e-05
4.38635e-05
4.38142e-05
4.38163e-05
4.3725e-05
4.37358e-05
4.36248e-05
4.35833e-05
4.34485e-05
4.34031e-05
4.32354e-05
4.31483e-05
4.29694e-05
4.28582e-05
4.26225e-05
4.24695e-05
4.2211e-05
4.19966e-05
4.17232e-05
4.14475e-05
4.11455e-05
4.07976e-05
4.04548e-05
4.00784e-05
3.96299e-05
3.92672e-05
3.87207e-05
3.8293e-05
3.77128e-05
3.71613e-05
3.65395e-05
3.59006e-05
3.52433e-05
3.45345e-05
3.38084e-05
3.30352e-05
3.2239e-05
3.1417e-05
3.05007e-05
2.96401e-05
2.86361e-05
2.77232e-05
2.65724e-05
2.54949e-05
2.46042e-05
2.36747e-05
2.25954e-05
2.15103e-05
2.0359e-05
1.92775e-05
1.81271e-05
1.70774e-05
1.59192e-05
1.48642e-05
1.37799e-05
1.27849e-05
1.1776e-05
1.094e-05
1.00832e-05
9.33086e-06
8.46663e-06
7.82294e-06
6.98155e-06
6.39008e-06
5.62064e-06
4.99779e-06
4.28928e-06
3.6789e-06
3.02334e-06
2.45138e-06
1.95487e-06
1.3926e-06
1.04861e-06
6.07345e-07
3.9463e-07
2.04395e-07
1.21766e-07
6.21987e-08
6.8146e-08
3.60022e-08
4.65552e-08
3.05221e-08
3.98273e-08
3.46118e-08
3.7046e-08
3.78769e-08
5.03742e-08
2.15037e-08
3.57439e-08
2.0885e-08
5.40837e-08
4.80852e-08
3.63766e-08
2.86249e-08
2.56409e-08
3.62797e-08
5.1261e-08
6.8202e-08
7.16647e-08
5.76725e-08
3.3676e-08
2.03916e-08
1.38965e-08
2.34101e-08
2.12721e-08
4.97192e-08
5.77181e-08
1.09504e-07
5.98491e-08
7.00255e-08
1.06495e-08
1.55714e-08
3.54431e-09
3.29776e-08
2.48764e-08
1.29553e-07
1.99741e-07
8.5195e-08
1.17462e-07
1.32025e-07
3.0251e-08
2.01938e-07
2.52526e-07
2.54985e-10
8.72608e-11
1.19474e-08
1.06578e-10
3.46772e-09
7.80733e-10
5.1303e-09
1.27682e-09
5.95266e-09
1.10128e-09
1.41645e-08
1.58139e-09
1.74152e-08
2.10122e-09
2.71827e-08
3.28296e-09
3.83841e-08
5.32122e-09
5.91606e-08
4.63276e-09
8.8544e-08
2.81215e-09
1.35317e-07
1.47917e-09
2.03614e-07
1.28001e-09
2.59271e-07
3.2504e-09
2.6553e-07
2.29635e-09
2.7058e-07
1.77811e-10
3.33207e-07
4.48488e-10
3.14177e-07
4.88983e-10
5.42275e-07
9.06463e-09
7.61001e-07
2.02184e-07
1.29188e-06
6.04509e-07
1.91543e-06
1.82683e-06
3.13532e-06
3.17242e-06
4.50139e-06
4.86588e-06
6.19998e-06
6.66688e-06
7.77739e-06
8.27875e-06
9.16441e-06
9.97423e-06
1.04171e-05
1.15858e-05
1.14903e-05
1.30524e-05
1.2566e-05
1.41339e-05
1.37336e-05
1.5143e-05
1.47757e-05
1.54594e-05
1.71648e-05
1.79392e-05
2.22738e-05
3.3301e-05
4.44494e-05
5.49068e-05
6.49713e-05
8.14882e-05
9.4189e-05
9.59388e-05
9.73791e-05
9.9168e-05
9.97775e-05
9.49099e-05
8.41563e-05
6.66817e-05
4.47951e-05
2.58053e-05
1.92716e-05
1.7596e-05
1.7751e-05
1.85707e-05
1.98187e-05
2.08582e-05
2.31115e-05
2.57176e-05
2.78993e-05
2.95456e-05
3.5956e-05
4.19395e-05
4.12627e-05
4.33804e-05
3.93964e-05
2.92652e-05
2.0247e-05
1.64474e-05
1.87053e-05
3.24632e-05
5.11107e-05
6.84397e-05
7.75736e-05
8.17855e-05
8.2439e-05
8.10153e-05
7.56573e-05
6.31408e-05
5.71052e-05
6.43605e-05
7.24625e-05
7.55362e-05
7.80742e-05
7.94683e-05
8.06718e-05
8.15543e-05
8.25017e-05
8.3462e-05
8.45949e-05
8.54583e-05
8.63632e-05
8.72224e-05
8.81411e-05
8.90141e-05
9.00116e-05
9.10359e-05
9.21941e-05
9.34424e-05
9.48007e-05
9.62358e-05
9.77258e-05
9.92737e-05
0.000100875
0.000102575
0.000104378
0.000106209
0.00010803
0.000109496
0.000110465
0.000110278
0.000109139
0.000106454
0.000103079
9.84302e-05
9.46829e-05
9.06371e-05
8.70831e-05
8e-05
7.63868e-05
7.34637e-05
7.6002e-05
7.9323e-05
8.43199e-05
8.7463e-05
4.63886e-05
3.21103e-05
2.83696e-05
5.3147e-05
5.68336e-06
0.000206036
0.000500571
0.000359054
5.82212e-05
5.03805e-05
0.000209987
0.000132465
3.18195e-05
4.09562e-06
1.75491e-07
3.00384e-08
2.72633e-08
2.83412e-08
2.90146e-08
2.91015e-08
3.22961e-08
3.07478e-08
3.78667e-08
3.22494e-08
3.66566e-08
3.28086e-08
3.10992e-08
2.9674e-08
2.96673e-08
3.09652e-08
3.26478e-08
3.63266e-08
3.26173e-08
3.77723e-08
3.11835e-08
3.2064e-08
2.9183e-08
2.86166e-08
2.77964e-08
2.70535e-08
2.72452e-08
3.54064e-08
5.08133e-07
7.9888e-06
4.65851e-05
6.82894e-05
6.46417e-08
3.02189e-06
3.22301e-05
0.000154791
3.52114e-05
2.35434e-06
2.53104e-05
3.08797e-05
3.74842e-05
3.95846e-05
4.12263e-05
4.17464e-05
4.2215e-05
4.2569e-05
4.2616e-05
4.31553e-05
4.30246e-05
4.3642e-05
4.34399e-05
4.4039e-05
4.38441e-05
4.43894e-05
4.4236e-05
4.46867e-05
4.45969e-05
4.49282e-05
4.49072e-05
4.51819e-05
4.51896e-05
4.53876e-05
4.54253e-05
4.55854e-05
4.56281e-05
4.57429e-05
4.57911e-05
4.58689e-05
4.59228e-05
4.59386e-05
4.6002e-05
4.60077e-05
4.60664e-05
4.60427e-05
4.60665e-05
4.60177e-05
4.60126e-05
4.59443e-05
4.58981e-05
4.58287e-05
4.57546e-05
4.56474e-05
4.55352e-05
4.53839e-05
4.52603e-05
4.50751e-05
4.49145e-05
4.46922e-05
4.45041e-05
4.42238e-05
4.39707e-05
4.36701e-05
4.3347e-05
4.30156e-05
4.26295e-05
4.22457e-05
4.17902e-05
4.13558e-05
4.08517e-05
4.02946e-05
3.98057e-05
3.91248e-05
3.85764e-05
3.78499e-05
3.71455e-05
3.63634e-05
3.55541e-05
3.47315e-05
3.38363e-05
3.29257e-05
3.19547e-05
3.09657e-05
2.99424e-05
2.8824e-05
2.77729e-05
2.65684e-05
2.54798e-05
2.40787e-05
2.27846e-05
2.17236e-05
2.06452e-05
1.94051e-05
1.81603e-05
1.68407e-05
1.56233e-05
1.43268e-05
1.3173e-05
1.18852e-05
1.07287e-05
9.51856e-06
8.41722e-06
7.23854e-06
6.29079e-06
5.24687e-06
4.42791e-06
3.44693e-06
2.86882e-06
2.03141e-06
1.69052e-06
9.87338e-07
8.49994e-07
2.67312e-07
3.21898e-07
7.92574e-08
1.24297e-07
2.15079e-08
7.88469e-08
2.04197e-08
5.06627e-08
1.76203e-08
6.90309e-08
1.06964e-08
7.53872e-08
1.27542e-08
6.03529e-08
1.61588e-08
6.20174e-08
1.26278e-08
6.9281e-08
1.18155e-08
8.37509e-08
1.58146e-08
5.61018e-08
1.509e-08
7.92879e-08
3.911e-08
9.17237e-08
1.47752e-08
5.43414e-08
1.25613e-08
6.93782e-08
2.57255e-08
1.10067e-07
4.33097e-08
9.41158e-08
1.97473e-08
4.58468e-08
1.39561e-08
7.3503e-08
4.91389e-08
1.78528e-07
9.32075e-08
1.4927e-07
3.81738e-08
4.98011e-08
8.94767e-09
2.8562e-08
1.30287e-08
3.97822e-08
5.28097e-08
7.27103e-08
1.51195e-07
7.45033e-08
3.5061e-08
5.43223e-09
6.46417e-08
4.33346e-07
1.97524e-07
1.93369e-08
4.25989e-09
2.7206e-08
6.62641e-11
2.37335e-08
1.29111e-10
1.40821e-08
8.26228e-11
1.20041e-08
7.82074e-11
1.67906e-08
1.77804e-10
2.81129e-08
5.21955e-10
4.41087e-08
1.03157e-09
5.59163e-08
2.06702e-09
6.13727e-08
1.68784e-09
4.84608e-08
5.44252e-10
4.19847e-08
1.32542e-10
4.67892e-08
4.20791e-11
5.65123e-08
1.41298e-10
9.03422e-08
1.74788e-09
1.61771e-07
6.93726e-09
2.22176e-07
1.13546e-08
1.96975e-07
3.26156e-09
2.30771e-07
3.37049e-10
2.61084e-07
6.74492e-09
5.50355e-07
3.54972e-10
6.49812e-07
2.38111e-08
7.40566e-07
1.10211e-07
9.86259e-07
6.70569e-07
1.62214e-06
1.74758e-06
2.58665e-06
2.97478e-06
3.73003e-06
4.69227e-06
5.22878e-06
6.76288e-06
6.83525e-06
8.72573e-06
8.3088e-06
1.03055e-05