/*--------------------------------*- C++ -*----------------------------------*\
| =========                 |                                                 |
| \\      /  F ield         | OpenFOAM: The Open Source CFD Toolbox           |
|  \\    /   O peration     | Version:  v2006                                 |
|   \\  /    A nd           | Website:  www.openfoam.com                      |
|    \\/     M anipulation  |                                                 |
\*---------------------------------------------------------------------------*/
FoamFile
{
    version     2.0;
    format      ascii;
    class       volScalarField;
    location    "220";
    object      ducSensor;
}
// * * * * * * * * * * * * * * * * * * * * * * * * * * * * * * * * * * * * * //

dimensions      [0 0 0 0 0 0 0];


internalField   nonuniform List<scalar> 
93840
(
0
0
0
0.0606788
0
0.110278
0
0.14387
0
0.0751793
0.111549
0.0289363
0.0550415
0
0
0.114237
0.51454
0.727741
0.902339
0.794894
0.469858
0
0.230079
0.268941
0
0.0462895
0.421895
0
0
0.0287811
0
0.0262107
0.00597532
0
0
0
0
0
0
0
0
0
0
0
0
0
0
0
0
0
0
0
0
0
0
0
0
0
0
0
0
0
0
0
0
0
0
0
0
0
1.36725e-05
0
4.97598e-05
7.44679e-05
0
0.000123148
0.000147019
0.000103864
0.000212342
0.000192476
0.000180691
0.000183383
0.000249362
0.000309094
0.000285939
0.000352807
0.000297703
0.000320216
0.000329351
0.000392253
0.000423143
0.000449366
0.000453076
0.000471401
0.000505818
0.000536038
0.000540325
0.00057108
0.000602416
0.000634974
0.000636127
0.000636924
0.000852707
0.00103669
0.000675676
0.000324467
0.000558992
0.000804918
0.000857143
0.000848112
0.000846017
0.000833189
0.000913836
0.000994108
0.00101176
0.00103658
0.000922689
0.000675506
0.000429493
0.000225323
7.62931e-05
0
0
0
0
0
0
0
0
0
0
0
0
0
0
0
0
0
0
0
0
0
0
0
0
0
0
0
0
0
0
0
0
0
0
0
0
0
0
0
0
0
0
0
0
0
0
0
0
0
0
0
0
0
0
0
0
0
0
0
0
0
0
0
0
0
0
0
0
0
0
0
0
0
0
0
0
0
0
0
3.68305e-05
0
0
0
0
1.08844e-06
0
0.000272629
0
0
2.24452e-05
0
0
0
0
0
0
0
0
0
0
0
0
0
0
0.000118146
0
0
0
0
0
0
0
0
0
0
0
0
0
0
0
0
0
0
0
0
0
0
0
0
0
0
9.40509e-06
0.00389003
0.0081702
0.012408
0.100451
0.00364141
0
0
0
0
0
0
0
0
0
0
0
0
0
0
0
0
0
0
0
0
0
0
0
0
0
0.000121919
0.000215761
6.18317e-05
0
0
0
0
0
4.53082e-06
0.000170752
0.000329868
0.0002706
0.000145199
0
5.94522e-05
0.000103517
0.000224628
0.000264954
0.000246957
0.000143345
0.000148289
2.01331e-05
0
0
0
0
0
0
0
0
0
0
0
0
0
0
0
0
0
0
0
0
0
0
0
0
0
0
0
0
0
0.0186736
0.0794781
0
0
0
0
0
0.0406912
0
0
0.23959
0
0
0.544387
0.698253
0.856654
0.584238
0.41371
0.0901638
0
0
0.0515755
0.00775814
0.10448
0.0747803
0
0.125088
0
0.0695282
0
0.015646
0
0.0254314
0.0280689
0.00690967
0
0
0.0198411
0
0.129616
0
0.118494
0.0258644
0.0647328
0.110498
0.00438609
0.0531729
0
0
0.117249
0.539063
0.800357
0.920893
0.657124
0.0846986
0
0.258916
0.155386
0
0.205712
0.20699
0
0
0.0231446
0
0
0
0
0
0
0
0
0
0
0
0
0
0
0
0
0
0
0
0
0
0
0
0
0
0
0
0
0
0.00138252
0
0
0
0.000436393
0.00171244
0.00114298
0
0.000406604
0.000120172
0.000828335
0.00212663
0.000376684
0.00207133
0.00154257
0
0.00198725
0.00215334
0.00148231
0.00217254
0.00221455
0.00196025
0.00185798
0.00224213
0.00251366
0.0023371
0.00289576
0.00232056
0.00257377
0.00251877
0.00269639
0.00261067
0.00284693
0.00280144
0.00290689
0.00306287
0.00322129
0.00326552
0.0034711
0.00362255
0.00377463
0.00385063
0.00384898
0.0047068
0.00568172
0.00418818
0.00248246
0.00341084
0.00472851
0.00507687
0.00515437
0.00519705
0.00513955
0.00571826
0.00635219
0.00680271
0.00729041
0.00665627
0.00473139
0.00242803
3.28079e-05
0
0
0
0
0
0
0
0
0
0
0
0
0
0
0
0
0
0
0
0
0
0
0
0
0
0
0
0
0
0
0
0
0
0
0
0
0
0
0
0
0
0
0
0
0
0
0
0
0
0
0
0
0
0
0
0
0.212979
0.471982
0.489702
0.158487
0.143361
0.422703
0.427982
0.190531
0
0
0
0
0
0
0
0
0
0
0
0
0
0
0
0
0
0
0
0
0
0
0
0
0
0
0
0
0
0
0
0
0
0
0
0
0
0
0
0
0
0
0
0
0
0
0
0
0
0
0
0
0
0
0
0
0
0
0
0
0
0
0
0
0
0
0
0
0.00660976
0.0253242
0.0850334
0.0433441
0
0
0
0
0
0
0
0
0
0
0
0
0
0
0
0
0
0.00428036
0.00127212
0
0
0
0
0
0
0
0
0
0
0
0
0
0
0
0
0
0.00563305
0.00789345
0.00311907
0.00101014
0
0
0
0
0
0
0
0
0
0
0
0
0
0
0
0
0
0
0.000243534
0
0
0
0
0.0046386
0.0140959
0.0259849
0.0298999
0.0330309
0.0439255
0.0278107
0.103638
0.0493635
0.122211
0.080457
0.139276
0.0721814
0.109863
0
0.160928
0
0.142329
0.0328505
0.0272361
0.0440897
0.0198006
0.0333451
0
0
0.353679
0
0
0.438905
0.70597
0.870325
0.455559
0.278555
0.109004
0
0
0.0606061
0.013498
0.115945
0.0915731
0
0.12914
0
0.123012
0
0
0.0174886
0
0.0838434
0.0464116
0
0.0187029
0.00285377
0
0.117788
0
0.0926212
0.0384357
0.0553091
0.102833
0.0147253
0.0381589
0
0
0.16433
0.526974
0.806465
0.94993
0.679836
0.0683925
0
0.292092
0.231596
0
0.0129927
0.184933
0
0
0
0
0.535908
0
0
0
0
0
0
0
0
0
0
0
0
0
0
0
0
0
0
0
0
0
0
0
0
0
0
0
0
0
0
0
0
0
0
0
0
0
0
7.28705e-05
0
0.000257661
0.000496559
0.000204927
0.00157558
0.00171551
0.00181076
0.00281448
0.00239735
0.002394
0.00254278
0.00313501
0.00387544
0.00357908
0.00432172
0.00367897
0.0038612
0.00390183
0.00447221
0.00478837
0.0050621
0.00508146
0.00527133
0.00559931
0.00585742
0.00587914
0.00617605
0.00647202
0.00685124
0.00686071
0.006935
0.00921549
0.0114579
0.00773894
0.00377165
0.00585174
0.00886772
0.0095435
0.00975987
0.00987366
0.00987241
0.0111093
0.0124163
0.0133603
0.0144736
0.0137814
0.0107486
0.00699548
0.00293039
0.00175448
0
0
0
0
0
0
0
0
0
0
0
0
0
0
0
0
0
0
0
0
0
0
0
0
0
0
0
0
0
0
0
0
0
0
0
0
0
0
0
0
0
0
0
0
0
0
0
0
0
0
0
0
0
0
0
0
0
0
0
0
0
0
0
0
0
0
0
0
0
0
0
0
0
0
0
0
0
0
0
0.00637511
0.0624753
0
0
0
0.00995593
0
0
0
0
0
0
0
0
0
0
0
0.00299387
0
0
0
0
0
0
0
0
0
0
0
0
0
0
0
0
0
0
0
0
0
0
0
0
0
0
0
0
0
0
0
0
0
0
0.00565849
0.0657993
0.122001
0.151523
0.0268649
0.00820144
0.00356987
0.000182231
0
0
0
0
0
0
0
0
0
0
0
0
0
0
0
0
0
0
0
0
0
0
0
0
0
0
0
0
0
0
0
0.00167216
0.00964322
0.0152272
0.00827337
0.002357
0
0.00149266
0.00482753
0.0123499
0.0171535
0.0133455
0.0146578
0.00589037
0
0
0
0
0
0
0
0
0
0
0
0
0
0
0
0
0
0
0
0
0
0
0
0
0
0
0
0
0
0
0
0.00876972
0
0.0118125
0
0.014833
0
0.0135484
0
0
0.173001
0
0
0.431832
0.738771
0.862506
0.162902
0.00585922
0.135333
0
0
0.0529085
0
0.115866
0.101011
0
0.116026
0
0.132264
0
0.0322703
0
0.014185
0
0
0.0181604
0
0
0
0.125243
0.0326901
0.0826501
0.046266
0.0570695
0.105466
0.0267268
0.0409124
0
0
0.202294
0.525675
0.807507
0.953893
0.731967
0.0210715
0
0.357341
0.247407
0
0.0279832
0.0709269
0.0691837
0
0
0
0
0
0
0
0
0
0
0
0
0
0
0
0
0
0
0
0
0
0
0
0
0
0
0
0
0
0
0
0
0
0
0
0
0
0
0
0.00186841
0
0
0.000828809
0
0
0
0.00194941
0.00162789
0.00235352
0.00244202
0.00312508
0.00290764
0.0028136
0.00298144
0.00374018
0.00435036
0.00401867
0.00485226
0.00408375
0.00434981
0.0043523
0.0049096
0.00513541
0.00546671
0.00546809
0.00567391
0.00600752
0.00629748
0.00634666
0.00672063
0.00706638
0.00747236
0.00754082
0.00768579
0.0101499
0.012597
0.00859445
0.00421322
0.00660144
0.00992733
0.0108976
0.0113331
0.0116126
0.0118085
0.0135459
0.0154856
0.0170584
0.019066
0.0184726
0.0142249
0.00883904
0.0035021
0.000968829
0
0
0
0
0
0
0
0
0
0
0
0
0
0
0
0
0
0
0
0
0
0
0
0
0
0
0
0
0
0
0
0
0
0
0
0
0
0
0
0
0
0
0
0
0
0
0
0
0
0
0
0
0
0
0
0
0
0
0
0.0102628
0.0552769
0
0
0
0
0
0
0
0
0
0
0
0
0
0
0
0
0
0
0
0
0.265856
0.233387
0
0.00986806
0
0.0270911
0.0365583
0.000399329
0
0.00941731
0
0
0
0.0168955
0
0
0
0
0
0
0
0
0
0
0
0
0
0
0
0
0
0
0
0
0
0
0
0
0
0
0
0
0
0
0
0
0
0
0
0
0.00516688
0.0896105
0.160201
0.186264
0.0353089
0.00358322
0.00177502
0
0
0
0
0
0
0
0
0
0
0
0
0
0
0
0
0
0
0
0
0
0
0
0
0
0
0
0
0
0
0
0
4.88713e-05
0.00595173
0.00996405
0.00638649
0.00163957
0
0
0.00108856
0.00384603
0.00460535
0.00161908
0
0
0
0
0
0
0
0
0
0
0
0
0
0
0
0
0
0
0
0
0
0
0
0
0
0
0
0.0208681
0.0209347
0.0216293
0.0463753
0
0.00510069
0.0437892
0.00330124
0.0200939
0
0.0267165
0
0.032809
0
0
0.0478075
0
0
0.418325
0.72755
0.794854
0
0
0.107951
0.0129712
0
0.0534806
0
0.113045
0.103583
0
0.109281
0
0.0894578
0
0.0307077
0.0554866
0
0.048976
0
0.0559484
0.0116037
0.00967002
0
0.129812
0
0.0849184
0.0124695
0.0555586
0.105335
0.0281147
0.0318571
0
0
0.169924
0.526874
0.800971
0.938635
0.685714
0.349094
0
0.429633
0.275491
0
0.066436
0.0368138
0
0
0
0
0
0
0
0
0
0
0
0
0
0
0
0
0
0
0
0
0
0
0
0
0
0
0
0
0
0
0
0
0
0
0
0
0
0
0
0
0
0
0
0
0.000284131
0
0
0.00311039
0.0019014
0.00182983
0.00284895
0.00320798
0.00316624
0.00323007
0.00338564
0.00402971
0.00464988
0.00444304
0.00531855
0.00453498
0.00480111
0.00483366
0.00549174
0.00576886
0.00608963
0.00613521
0.00639315
0.00678599
0.00716283
0.00723568
0.00770316
0.00814647
0.00863821
0.0087968
0.0090269
0.0121396
0.0151158
0.010168
0.00496858
0.00814625
0.0122202
0.0136833
0.0144506
0.0151398
0.015684
0.0183581
0.0213102
0.0238392
0.027265
0.0267142
0.0204971
0.0133212
0.00608589
0.00260018
0
0
0
0
0
0
0
0
0
0
0
0
0
0
0
0
0
0
0
0
0
0
0
0
0
0
0
0
0
0
0
0
0
0
0
0
0
0
0
0
0
0
0
0
0
0
0
0
0
0
0
0
0
0
0
0
0
0
0.635485
0.243573
0.212699
0
0
0
0
0
0
0
0
0
0
0
0
0
0
0
0
0
0
0
0
0
0
0
0
0
0
0
0.0510991
0
0
0.0335065
0
0
0
0.160251
0
0
0
0
0
0
0.00227532
0
0
0
0
0
0
0
0
0
0
0
0
0
0
0
0
0
0
0
0
0
0
0
0
0
0
0
0
0.00252295
0.104262
0.200383
0.20602
0.0524429
0.00690902
0.00403336
0.00186574
7.34529e-05
0
0
0
0
0
0
0
0
0
0
0
0
0
0
0
0
0
0
0
0
0
0
0
0
0
0
0
0
0
0
0.000336068
0.00574438
0.0088621
0.00610578
0.00212239
0
0.000156059
0.00147425
0.00370237
0.00464761
0.00186102
0
0
0
0
0
0
0
0
0
0
0
0
0
0
0
0
0
0
0
0
0
0
0
0
0
0
0
0
0.0530061
0.0703167
0.0250776
0
0.0178982
0.0295442
0.0118197
0.019542
0
0.0440615
0
0.537278
0.0346785
0
0.02241
0
0
0.388075
0.734067
0.751713
0
0
0.0835151
0.0655106
0
0.0613377
0
0.117868
0.110899
0
0.117205
0
0.110501
0.000198621
0.0291985
0.00351806
0.0703198
0
0.00323201
0
0
0.00139248
0
0.146604
0.0150959
0.120171
0.0592229
0.0564107
0.104973
0.0178203
0.0293436
0
0
0.149719
0.535888
0.800018
0
0.705077
0.594689
0
0.576012
0.214211
0
0.141067
0.0172098
0
0
0
0
0
0
0
0
0
0
0
0
0
0
0
0
0
0
0
0
0
0
0
0
0
0
0
0
0
0
0
0
0
0
0
0
0
0
0
0
0.00283813
0
0
0
0.000900208
0
0
0.00477337
0.00142039
0.00207137
0.00269981
0.00336869
0.00310933
0.00319879
0.00360097
0.00443015
0.00509477
0.00470171
0.00572329
0.00486148
0.00518345
0.00522443
0.00593394
0.00630382
0.0067073
0.00679305
0.00710036
0.00756576
0.00802238
0.00819244
0.00870304
0.00927102
0.0100041
0.0103429
0.0107615
0.0145693
0.018099
0.0123412
0.00628457
0.0102188
0.0155442
0.0176968
0.019295
0.0205086
0.0218969
0.0259231
0.0306183
0.035159
0.0410474
0.0416101
0.0337559
0.0212901
0.0109251
0.00557835
0
0
0
0
0
0
0
0
0
0
0
0
0
0
0
0
0
0
0
0
0
0
0
0
0
0
0
0
0
0
0
0
0
0
0
0
0
0
0
0
0
0
0
0
0
0
0
0
0
0
0
0
0
0
0
0
0
0
0
0
0.748779
0.820358
0
0
0
0
0
0
0
0
0
0
0
0
0
0
0
0
0
0
0
0
0
0
0.276994
0.315384
0
0
0
0.0826096
0
0
0
0
0
0
0.213745
0
0
0
0
0
0
0.112889
0
0
0
0
0.00484762
0
0
0
0
0
0
0
0
0
0
0
0
0
0
0
0
0
0
0
0
0
0
0
0.125664
0.249741
0.26687
0.105785
0.00586033
0.00544092
0.0032172
0.00163772
0.000142224
0
0
0
0
0
0
0
0
0
0
0
0
0
0
0
0
0
0
0
0
0
0
0
0
0
0
0
0
0
0.000566696
0.0063522
0.00954604
0.0068464
0.00194024
0
0.000227975
0.00160889
0.00369837
0.0049905
0.00127605
0
0
0
0
0
0
0
0
0
0
0
0
0
0
0
0
0
0
0
0
0
0
0
0
0
0
0
0
0.0468506
0.0715068
0.0206501
0
0.0260629
0.00580351
0.017487
0
0
0.00183812
0.0144124
0
0.0839213
0
0.00756725
0
0
0.368264
0.697774
0.682564
0
0
0.12282
0.0894199
0
0.0657172
0
0.115785
0.108445
0.0205384
0.101329
0
0.123228
0.00682946
0.028136
0.0648252
0
0
0
0
0
0
0
0.113981
0.0497811
0.0807006
0.123168
0.0615258
0.103597
0.0110368
0.042901
0
0
0.0893255
0.492315
0.79078
0
0.689765
0.702012
0
0.653625
0.190088
0
0
0.0634447
0
0
0
0
0
0
0
0
0
0
0
0
0
0
0
0
0
0
0
0
0
0
0
0
0
0
0
0
0
0
0
0
0
0
0
0
0
0
0
0
0
0.000661039
0
0
0.00130172
0
0
0.00516085
0.0014961
0.00170608
0.00294902
0.00284054
0.00341013
0.00362388
0.00382608
0.00466709
0.00515504
0.00501126
0.00606124
0.005283
0.00557906
0.00567259
0.00650476
0.00696019
0.00739199
0.0075345
0.00795341
0.00853546
0.0091568
0.00941411
0.0101444
0.010952
0.0118421
0.0123587
0.013094
0.0180528
0.0226147
0.015511
0.00839337
0.0139435
0.0208982
0.0243811
0.0275052
0.0301381
0.0335274
0.0408521
0.0501943
0.0570839
0.0775709
0.0801182
0.0519308
0.0456537
0.0319173
0.0154196
0
0
0
0
0
0
0
0
0
0
0
0
0
0
0
0
0
0
0
0
0
0
0
0
0
0
0
0
0
0
0
0
0
0
0
0
0
0
0
0
0
0
0
0
0
0
0
0
0
0
0
0
0
0
0
0
0
0
0.544108
0.490415
0.25545
0
0
0
0
0
0
0
0
0
0
0
0
0
0
0
0
0
0
0
0
0
0
0
0
0
0.249579
0
0
0.166296
0
0
0
0.124635
0
0
0
0
0
0
0
0.136853
0
0
0.239708
0
0
0
0
0
0
0
0
0
0
0
0
0
0
0
0
0
0
0
0
0
0
0
0
0
0
0
0.139353
0.307629
0.323152
0.116419
0.0114004
0.00714001
0.00518293
0.00341743
0.00162463
0.000290531
0
0
0
0
0
0
0
0
0
0
0
0
0
0
0
0
0
0
0
0
0
0
0
0
0
0
0
0
0.000792276
0.00647729
0.00932396
0.00701725
0.00268517
0
0.000844532
0.0021243
0.00396084
0.00520034
0.00226576
0.000108359
0
0
0
0
0
0
0
0
0
0
0
0
0
0
0
0
0
0
0
0
0
0
0
0
0.0328052
0
0
0.162149
0.0180319
0.146268
0
0.0198677
0
0.0267646
0
0
0
0.149215
0.0121414
0.106393
0.000958435
0.0039296
0
0
0.346242
0.659637
0.60452
0
0
0.125811
0.0920951
0
0.0718346
0
0.113916
0.10658
0.018417
0.0770387
0
0.111749
0.0108978
0
0
0
0.063747
0
0
0
0.00391714
0.0761547
0.057725
0.0748683
0
0.192223
0.0672564
0.103761
0.0260518
0.0388373
0
0
0.0265484
0.338244
0.406139
0
0.732883
0.711445
0
0.631283
0.197037
0
0.0745284
0.0496127
0
0
0
0
0
0
0
0
0
0
0
0
0
0
0
0
0
0
0
0
0
0
0
0
0
0
0
0
0
0
0
0
0
0
0
0
0
0
0
0
0
0
0
0
0.000406583
0
0
0.00344124
0.00260311
0.0015027
0.00197295
0.00320365
0.00332705
0.00355733
0.00409381
0.00498843
0.00570514
0.00527465
0.00654654
0.00568268
0.00604962
0.00620058
0.00712407
0.00775934
0.00833175
0.00858721
0.00916657
0.00989462
0.0106792
0.0111288
0.01213
0.0133276
0.0146395
0.0156986
0.0170443
0.0237492
0.0300284
0.0214565
0.0127622
0.0208687
0.0331315
0.0393652
0.0470488
0.0541251
0.0652113
0.0897756
0.110755
0.144288
0.193654
0.216739
0.164836
0.224138
0.0614144
0.196895
0
0
0
0
0
0
0
0
0
0
0
0
0
0
0
0
0
0
0
0
0
0
0
0
0
0
0
0
0
0
0
0
0
0
0
0
0
0
0
0
0
0
0
0
0
0
0
0
0
0
0
0
0
0
0
0
0
0
0
0.260327
0.566644
0.863637
0
0
0
0
0
0
0
0
0
0
0
0
0
0
0
0
0
0
0
0
0
0
0
0
0
0.145469
0
0
0.1806
0
0
0
0
0.292936
0
0
0
0
0
0.0047977
0.115612
0
0
0
0
0.21094
0
0
0
0
0
0
0
0
0
0
0
0
0
0
0
0
0
0
0
0
0
0
0
0
0.155938
0.375199
0.398468
0.160739
0.0202272
0.00850334
0.00573607
0.00441105
0.00275408
0.00126963
0
0
0
0
0
0
0
0
0
0
0
0
0
0
0
0
0
0
0
0
0
0
0
0
0
0
0
0
0.000941636
0.00701914
0.010033
0.0077461
0.00294443
0
0.00115291
0.00245498
0.00406145
0.00502904
0.00274496
0.000288017
0
0
0
0
0
0
0
0
0
0
0
0
0
0
0
0
0
0
0
0
0
0
0
0
0.0259711
0
0
0
0.0902638
0.173798
0
0.185279
0
0.024207
0
0.0146162
0.0211161
0
0
0.1293
0.0082112
0.00559925
0
0
0.320863
0.596686
0.501933
0
0
0.123128
0.112317
0
0.0780593
0
0.112335
0.102436
0.00634248
0.0856982
0
0.106418
0.0013669
0.0392667
0.00759518
0
0.0320558
0
0.038686
0.0686936
0.0135337
0.0748126
0
0.122382
0
0.214038
0.0775298
0.102888
0.0186553
0.0185428
0
0
0.0778585
0
0
0
0.770958
0.700939
0.211301
0.355146
0.140866
0.0295608
0
0.0568556
0
0
0
0
0
0
0
0
0
0
0
0
0
0
0
0
0
0
0
0
0
0
0
0
0
0
0
0
0
0
0
0
0
0
0
0
0
0
0
0
0
0.000503222
9.92457e-05
0
0
0
0
0.00320193
0.00163003
0.00244087
0.00199194
0.00257326
0.00367331
0.00403182
0.00448586
0.00541241
0.00592161
0.00574125
0.00710755
0.00639524
0.0067838
0.00703894
0.00818965
0.00897817
0.00972158
0.0101792
0.0110032
0.0120618
0.013328
0.0141225
0.0157689
0.0176298
0.0197406
0.0215981
0.0243677
0.0361266
0.0480242
0.0341872
0.0234557
0.047521
0.0544276
0.0889943
0.10558
0.136764
0.173951
0.246375
0.287238
0.432399
0.518151
0.539796
0.489113
0.444155
0.12154
0.273014
0
0
0
0
0
0
0
0
0
0
0
0
0
0
0
0
0
0
0
0
0
0
0
0
0
0
0
0
0
0
0
0
0
0
0
0
0
0
0
0
0
0
0
0
0
0
0
0
0
0
0
0
0
0
0
0
0
0
0.455395
0.403791
0.314285
0
0
0
0
0
0
0
0
0
0
0
0
0
0
0
0
0
0
0
0
0
0.602618
0
0.391694
0
0
0.44658
0
0
0
0.0963594
0
0
0
0
0
0
0.00992313
0
0
0
0
0.0763958
0.119488
0
0
0
0
0
0
0
0
0
0
0
0
0
0
0
0
0
0
0
0
0
0
0.00201147
0
0
0
0
0.200335
0.463397
0.48451
0.200448
0.0290422
0.0101807
0.0075426
0.00599674
0.00407126
0.00236889
0.000748453
0
0
0
0
0
0
0
0
0
0
0
0
0
0
0
0
0
0
0
0
0
0
0
0
0
0
0
0.00102181
0.00705406
0.00999373
0.00805665
0.00373458
0.000460848
0.00172628
0.00298254
0.00442442
0.00547292
0.00329126
0.000840439
0
0
0
0
0
0
0
0
0
0
0
0
0
0
0
0
0
0
0
0
0
0
0
0
0.0120565
0.00325388
0
0
0.000903444
0.267444
0
0.386902
0
0.036066
0
0.00979528
0
0.563043
0.176759
0.0620905
0
0.0340332
0
0
0.297965
0.511617
0.323992
0
0.00218467
0.027473
0.136742
0
0.081935
0
0.106919
0.0998972
0
0.118829
0
0.127145
0
0
0
0
0
0
0
0.0471784
0.0236253
0.0737238
0
0.137945
0
0.175329
0.0962768
0.104388
0
0.0115297
0
0
0.131927
0
0
0
0.821987
0.664691
0
0.219749
0.412423
0
0
0.052801
0
0
0
0
0
0
0
0
0
0
0
0
0
0
0
0
0
0
0
0
0
0
0
0
0
0
0
0
0
0
0
0
0
0
0
0
0
0
0
0
0
0
0.00105191
0
0
0
0.000542834
0
0.00332117
0.00136919
0.00162012
0.00327011
0.00332347
0.00467252
0.00492854
0.00595435
0.00695403
0.00646016
0.00825743
0.00739293
0.00794665
0.0083756
0.00981843
0.0110323
0.0121911
0.0130449
0.0143998
0.0161089
0.0180952
0.0198057
0.0229104
0.0266377
0.0314249
0.0371071
0.0462726
0.07415
0.101494
0.0740043
0.0685396
0.124277
0.150182
0.238481
0.315967
0.418713
0.481512
0.594294
0.61425
0.726788
0.709641
0.726446
0.510309
0.503365
0.155913
0.314515
0
0
0
0
0
0
0
0
0
0
0
0
0
0
0
0
0
0
0
0
0
0
0
0
0
0
0
0
0
0
0
0
0
0
0
0
0
0
0
0
0
0
0
0
0
0
0
0
0
0
0
0
0
0
0
0
0
0
0.219085
0.35489
0.667077
0.453407
0
0
0
0
0
0
0
0
0
0
0
0
0
0
0
0
0
0
0
0
0
0
0
0.258104
0.0223301
0
0.210184
0
0
0
0.0980517
0
0
0
0
0
0
0
0
0
0
0
0.148688
0.453587
0
0
0
0
0
0
0
0
0
0
0
0
0
0
0
0
0
0
0
0
0
0
0
0
0
0
0.313034
0.583571
0.585857
0.252331
0.0411434
0.012343
0.00741052
0.00618024
0.00482138
0.00320292
0.00154409
6.71257e-05
0
0
0
0
0
0
0
0
0
0
0
0
0
0
0
0
0
0
0
0
0
0
0
0
0
0
0.00108244
0.0073994
0.0105619
0.00887431
0.00425282
0.000969788
0.0020484
0.00332277
0.00464467
0.00588739
0.00382533
0.000419366
0
0
0
0
0
0
0
0
0
0
0
0
0
0
0
0
0
0
0
0
0
0
0
0
0
0.0110294
0.00172548
0
0.0379495
0.0307923
0
0.469196
0
0
0
0.223326
0.00730022
0
0.952776
0
0
0.138442
0
0
0.27567
0.411711
0
0
0.233739
0
0.152091
0.00556536
0.081255
0
0.0959793
0.0943849
0.00982743
0.118724
0
0.126525
0
0.0245568
0
0.0382746
0.0403224
0
0.051052
0.0247799
0
0.00406987
0
0.089503
0
0.121049
0.118156
0.106629
0.00699658
0.0039073
0
0
0.104834
0
0
0.354637
0.845169
0.619114
0
0.453898
0.293318
0
0.218498
0
0
0
0
0
0
0
0
0
0
0
0
0
0
0
0
0
0
0
0
0
0
0
0
0
0
0
0
0
0
0
0
0
0
0
0
0
0
0
0
0
0
0
0
0
0
0
0.00109521
0
0.00268264
0.00277772
0.00140641
0.0032494
0.00411518
0.00516264
0.00595017
0.00713038
0.0080405
0.00796757
0.00978451
0.00940485
0.0102226
0.011018
0.0131896
0.015032
0.0169298
0.0188917
0.0214972
0.0251127
0.030069
0.0347722
0.0432652
0.0552319
0.0660485
0.083482
0.115388
0.196859
0.248938
0.189665
0.212533
0.303051
0.375136
0.50302
0.551548
0.590614
0.614623
0.655352
0.65975
0.710131
0.727836
0.728722
0.48448
0.435241
0.184376
0.270949
0
0
0
0
0
0
0
0
0
0
0
0
0
0
0
0
0
0
0
0
0
0
0
0
0
0
0
0
0
0
0
0
0
0
0
0
0
0
0
0
0
0
0
0
0
0
0
0
0
0
0
0
0
0
0
0
0
0
0.485234
0.397176
0.418676
0
0.0353233
0
0
0
0
0
0
0
0
0
0
0
0
0
0
0
0
0
0
0.0141754
0
0
0
0
0.209658
0
0
0.450364
0
0
0
0.395545
0
0
0
0
0
0
0
0
0
0
0
0.0347111
0
0.115317
0.195273
0
0
0
0
0
0
0
0
0
0.346792
0
0
0
0
0
0
0
0
0.0315702
0
0
0
0
0.504627
0.745476
0.693942
0.316666
0.0706553
0.0154344
0.00946713
0.00757215
0.00579397
0.00414311
0.00239359
0.000810347
0
0
0
0
0
0
0
0
0
0
0
0
0
0
0
0
0
0
0
0
0
0
0
0
0
0
0.00103135
0.00727765
0.0105277
0.00935041
0.00507966
0.00168656
0.00255635
0.0037581
0.00494092
0.00615496
0.00431325
0.000928652
0
0
0
0
0
0
0
0
0
0
0
0
0
0
0
0
0
0
0
0
0
0
0
0
0
0.00583126
0.0101911
0
0.0183043
0.0108719
0
0.154788
0.0044233
0
0
0.348729
0
0
0.803883
0
0.142821
0.182044
0
0
0.255013
0.321165
0
0
0.198944
0.188891
0.158502
0.0322729
0.0814462
0
0.0795161
0.0905566
0
0.114455
0
0.121389
0
0.0108159
0.0439512
0
0
0
0
0
0
0
0.0707115
0.0776764
0.012845
0.0331931
0.126
0.11145
0.0134769
0
0
0
0.0853944
0
0
0.507337
0.853482
0.552227
0.487817
0
0
0
0.27826
0
0
0
0
0
0
0
0
0
0
0
0
0
0
0
0
0
0
0
0
0
0
0
0
0
0
0
0
0
0
0
0
0
0
0
0
0
0
0
0
0
0
0
0
0
0
0
0
0
0.00160912
0.00272205
0.00239031
0.00422215
0.00459452
0.00698404
0.00726127
0.00918423
0.0109899
0.0106892
0.0139325
0.0134474
0.0149731
0.0167026
0.020528
0.0248773
0.0292919
0.035744
0.0426015
0.0549635
0.064296
0.0843529
0.108158
0.144913
0.182186
0.233053
0.302264
0.454096
0.474074
0.350757
0.341672
0.434783
0.478884
0.556205
0.57561
0.597809
0.622239
0.637072
0.641726
0.70413
0.738469
0.72151
0.540389
0.401572
0.172866
0.247969
0
0
0
0
0
0
0
0
0
0
0
0
0
0
0
0
0
0
0
0
0
0
0
0
0
0
0
0
0
0
0
0
0
0
0
0
0
0
0
0
0
0
0
0
0
0
0
0
0
0
0
0
0
0
0
0
0
0.0348253
0.358144
0.515903
0.741005
0.537186
0.139739
0
0
0
0
0
0
0
0
0
0
0
0
0
0
0
0
0
0
0
0
0
0
0
0
0.0144752
0
0
0.378328
0
0
0
0.206927
0
0
0.171362
0.119404
0
0
0.48975
0
0
0
0
0
0
0
0.106024
0
0
0
0
0
0
0
0
0
0
0
0
0
0
0
0
0
0
0
0
0
0
0.769423
0.901768
0.793853
0.415172
0.131157
0.0101681
0.00872538
0.00688665
0.00604386
0.00464098
0.00303475
0.00147726
0.0001
0
0
0
0
0
0
0
0
0
0
0
0
0
0
0
0
0
0
0
0
0
0
0
0
0
0.00103864
0.00740652
0.010904
0.0101108
0.00576251
0.00222983
0.00286639
0.00405506
0.00509478
0.00638098
0.00497585
0.00142661
0
0
0
0
0
0
0
0
0
0
0
0
0
0
0
0
0
0
0
0
0
0
0
0
0
0.00109448
0.00850905
0.00441682
0.0088777
0.0117583
0.0444304
0.0355136
0.0399488
0
0
0.660123
0.117528
0
0.59625
0.283606
0.0601358
0.174534
0
0
0.22855
0.237018
0
0.477267
0.220658
0.364141
0.150301
0
0.0782004
0
0.06266
0.0953327
0
0.117091
0
0.122764
0
0.0373601
0
0
0.0229198
0.00194051
0.0172852
0.0205786
0
0
0.112842
0
0.0711664
0
0.122497
0.121529
0
0
0
0
0.103433
0
0
0.581677
0.849507
0.463601
0
0
0
0.202534
0
0
0
0
0
0
0
0
0
0
0
0
0
0
0
0
0
0
0
0
0
0
0
0
0
0
0
0
0
0
0
0
0
0
0
0
0
0
0
0
0
0
0
0
0
0
0
0.00593699
0
0
0
0.00207272
0.0038225
0.00744432
0.0064373
0.0105108
0.0107265
0.0145263
0.0172406
0.0182325
0.0226569
0.0243429
0.0291674
0.0346167
0.0471182
0.0573328
0.0690227
0.0924362
0.109466
0.150916
0.176299
0.224419
0.265961
0.314106
0.349659
0.386785
0.428382
0.554697
0.537222
0.378594
0.347408
0.438152
0.492508
0.560468
0.575669
0.584463
0.601177
0.65158
0.670626
0.702881
0.737926
0.692415
0.581226
0.35045
0.219416
0.179961
0
0
0
0
0
0
0
0
0
0
0
0
0
0
0
0
0
0
0
0
0
0
0
0
0
0
0
0
0
0
0
0
0
0
0
0
0
0
0
0
0
0
0
0
0
0
0
0
0
0
0
0
0
0
0
0
0
0.275571
0.528593
0.442684
0.639981
0.223146
0
0
0
0
0
0
0
0
0
0
0
0
0
0
0
0
0
0
0
0
0
0
0
0
0
0
0
0
0
0.381108
0.1635
0
0
0.293483
0.195502
0
0
0
0
0
0
0.21165
0
0
0
0.0839975
0
0
0
0
0
0
0
0.0497666
0
0
0
0
0
0
0
0
0
0
0
0
0
0
0
0
0.788572
0.979451
0.870882
0.524731
0.18553
0.0190795
0.0102953
0.00813955
0.00649768
0.00525513
0.00371227
0.00219217
0.000741411
0
0
0
0
0
0
0
0
0
0
0
0
0
0
0
0
0
0
0
0
0
0
0
0
0
0.00093179
0.00716049
0.0108335
0.0105675
0.006586
0.00289554
0.00332055
0.00445739
0.00537605
0.00663733
0.00561463
0.00163713
0
0
0
0
0
0
0
0
0
0
0
0
0
0
0
0
0
0
0
0
0
0
0
0
0
0
0.00234669
0.0121755
0.00955345
0.0184664
0.0305996
0.0283815
0.00791808
0.0265843
0
0.719976
0
0.0417137
0.565892
0.302113
0.0460478
0.19206
0
0
0.199784
0.17641
0
0.517245
0.317967
0.38518
0.123092
0
0.0673726
0
0.049141
0.0994286
0
0.118957
0
0.117641
0
0.00211356
0.034403
0.0306954
0.00342766
0
0
0.06495
0
0
0.12701
0
0.113238
0.00748614
0.120623
0.133066
0.00276845
0
0
0
0.142501
0
0
0.655126
0.815195
0.238923
0
0.18698
0
0.104555
0
0
0
0
0
0
0
0
0
0
0
0
0
0
0
0
0
0
0
0
0
0
0
0
0
0
0
0
0
0
0
0
0
0
0
0
0
0
0
0
0
0
0
0
0
0
0
0.00737149
0
0
0.00108435
0.0075884
0.00476142
0.0106991
0.0155328
0.016838
0.0243241
0.0299537
0.0398294
0.0412773
0.0590096
0.0654843
0.0791642
0.102458
0.127606
0.162907
0.187847
0.231561
0.24657
0.28375
0.302803
0.339933
0.359779
0.391623
0.406033
0.421692
0.453374
0.567944
0.549471
0.4036
0.383828
0.468209
0.51573
0.583225
0.605458
0.614253
0.633066
0.66582
0.671796
0.691492
0.74145
0.690755
0.611177
0.348131
0.259781
0.154765
0
0
0
0
0
0
0
0
0
0
0
0
0
0
0
0
0
0
0
0
0
0
0
0
0
0
0
0
0
0
0
0
0
0
0
0
0
0
0
0
0
0
0
0
0
0
0
0
0
0
0
0
0
0
0
0
0
0.209762
0.434998
0.448189
0.805223
0.658189
0.581137
0
0
0
0
0
0
0
0
0
0
0
0
0
0
0
0
0
0
0
0
0
0
0
0
0
0.074596
0
0
0
0.0603496
0.256438
0
0
0
0
0
0
0
0
0
0
0.299815
0
0
0.0577022
0.261881
0.235181
0
0
0
0
0
0
0.687669
0
0
0
0
0
0
0
0
0
0
0.291314
0
0
0
0
0.629314
0.995465
0.926506
0.634456
0.238808
0.0405406
0.0109981
0.00702415
0.00634513
0.00528078
0.00402661
0.0027008
0.00124954
0.000116125
0
0
0
0
0
0
0
0
0
0
0
0
0
0
0
0
0
0
0
0
0
0
0
0
0.000917227
0.00711133
0.010999
0.0111677
0.0072981
0.00345663
0.00358524
0.00471472
0.00551823
0.00693492
0.00620409
0.00193464
0
0
0
0
0
0
0
0
0
0
0
0
0
0
0
0
0
0
0
0
0
0
0
0
0
0
0
0.014755
0.0157917
0.021606
0.0317551
0.0320069
0.0366607
0.0503899
0
0.460534
0
0.143327
0.857916
0.0949853
0.0243129
0.275653
0
0
0.176171
0.122802
0
0.453321
0.401334
0.295643
0.0710772
0
0.0543808
0
0.0476457
0.101624
0
0.121028
0
0.117179
0
0
0
0
0.0516962
0.05791
0
0
0
0
0.118889
0
0.117181
0
0.131572
0.147046
0.00763657
0
0
0
0.152981
0
0
0.683741
0.750085
0
0
0.0909052
0
0
0
0
0
0
0
0
0
0
0
0
0
0
0
0
0
0
0
0
0
0
0
0
0
0
0
0
0
0
0
0
0
0
0
0
0
0
0
0
0
0
0
0
0
0
0
0
0
0.0285425
0
0
0
0.022484
0.027859
0.0258583
0.0473882
0.0482757
0.0812059
0.0751397
0.119835
0.132398
0.149163
0.176245
0.164444
0.214388
0.223171
0.252193
0.264971
0.292849
0.30609
0.329356
0.332865
0.354373
0.365682
0.396924
0.416475
0.436851
0.476052
0.582735
0.558146
0.415363
0.38723
0.462583
0.509409
0.571331
0.585007
0.596064
0.614062
0.639777
0.655838
0.705297
0.736074
0.676757
0.587243
0.336493
0.227152
0.10958
0
0
0
0
0
0
0
0
0
0
0
0
0
0
0
0
0
0
0
0
0
0
0
0
0
0
0
0
0
0
0
0
0
0
0
0
0
0
0
0
0
0
0
0
0
0
0
0
0
0
0
0
0
0
0
0
0
0.315214
0.499006
0.355287
0.830314
0.302161
0
0
0
0
0
0
0
0
0
0
0
0
0
0
0
0
0
0
0
0
0
0
0
0
0.46689
0
0
0
0
0
0
0
0
0
0
0
0.100384
0
0
0
0
0
0
0.125941
0
0
0
0
0
0
0
0
0
0
0
0
0
0
0
0
0
0
0
0
0
0
0
0
0
0
0.467213
0.978193
0.95993
0.735969
0.317416
0.072682
0.0151568
0.00865763
0.00613745
0.00543006
0.00436099
0.00323999
0.00182638
0.000717467
0
0
0
0
0
0.000122141
0
0
0
0
0
0
0
0
0
0
0
0
0
0
0
0
0
0
0.000818888
0.00679137
0.010866
0.0115563
0.00808126
0.00409983
0.003958
0.0050038
0.00574171
0.00724654
0.00675744
0.00225176
0
0
0
0
0
0
0
0
0
0
0
0
0
0
0
0
0
0
0
0
0
0
0
0
0
0
0
0.0097652
0.0125536
0.025532
0.0266634
0.0389708
0.042073
0.0581176
0
0.273771
0
0.117926
0.667246
0
0.140236
0.624693
1.00756e-05
0
0.163983
0.0977425
0.0882866
0.380136
0.451528
0.203373
0.0895005
0
0.0480179
0
0.0525518
0.103875
0
0.119128
0
0.114691
0
0.0116478
0.0223664
0
0.00374776
0
0.0232616
0
0.00183659
0
0.117464
0
0.0982095
0
0.144032
0.16504
0
0
0
0
0.0952349
0
0
0.701558
0.700084
0
0.199255
0.524081
0.415382
0
0
0
0.356118
0
0
0
0
0
0
0
0
0
0
0
0
0
0
0
0
0
0
0
0
0
0
0
0
0
0
0
0
0
0
0
0
0
0
0
0
0
0
0
0
0
0
0
0
0.101707
0.0539899
0
0
0.043644
0.0998972
0.0458963
0.120133
0.0945188
0.140512
0.157446
0.162737
0.199881
0.171673
0.219376
0.187563
0.231645
0.238018
0.263543
0.274781
0.29166
0.302288
0.321383
0.334932
0.36042
0.369475
0.395925
0.412165
0.429879
0.465424
0.565981
0.548216
0.41262
0.390398
0.467439
0.514603
0.569935
0.588113
0.605481
0.624727
0.657026
0.688939
0.707248
0.737164
0.675708
0.567597
0.377071
0.20566
0.0902187
0
0
0
0
0
0
0
0
0
0
0
0
0
0
0
0
0
0
0
0
0
0
0
0
0
0
0
0
0
0
0
0
0
0
0
0
0
0
0
0
0
0
0
0
0
0
0
0
0
0
0
0
0
0
0
0
0
0.419482
0.536935
0.420668
0.871328
0.618838
0.765426
0
0
0
0
0
0
0
0
0
0
0
0
0
0
0
0
0
0
0
0
0
0
0
0
0
0
0
0
0
0.0830473
0
0
0.198422
0
0
0
0.202016
0
0
0
0
0
0
0
0
0
0
0
0
0
0
0
0
0
0
0
0
0
0
0
0
0
0
0
0
0
0
0
0
0.427615
0.941612
0.98641
0.819584
0.417757
0.145065
0.00918064
0.00769139
0.00597567
0.00494591
0.00419399
0.00344382
0.00218724
0.00115359
1.42115e-05
0
0
0
5.32358e-05
0.000433885
6.7375e-05
0
0
0
0
0
0
0
0
0
0
0
0
0
0
0
0
0
0.000809607
0.00661019
0.0108238
0.0119764
0.00875045
0.00469432
0.00417277
0.00515635
0.00581287
0.00752165
0.00722293
0.0028156
0.000574379
0
0
0
0
0
0
0
0
0
0
0
0
0
0
0
0
0
0
0
0
0
0
0
0
0
0
0.00497539
0.00857535
0.0245196
0.0281358
0.0405032
0.0524239
0.0651841
0.0416943
0.208242
0.0846665
0.179289
0.780231
0.050564
0.0503075
0.198417
0.015528
0
0.114981
0.0969158
0.0990952
0.344742
0.491076
0.166078
0.00958329
0
0.0460575
0.00316917
0.039105
0.103008
0
0.116787
0
0.117502
0
0.0244906
0.00373086
0.0411696
0
0
0
0.0106339
0.00577724
0.0255579
0.0926452
0
0.0876505
0.0348159
0.128677
0.204076
0
0
0
0.00287914
0.0538332
0.0105027
0
0.710229
0.673628
0.308942
0.620177
0.756353
0.0222261
0
0
0
0.0589863
0
0
0
0
0
0
0
0
0
0
0
0
0
0
0
0
0
0
0
0
0
0
0
0
0
0
0
0
0
0
0
0
0
0
0
0
0
0
0
0
0
0
0
0
0.188427
0.0991552
0
0.00143187
0.0439198
0.120272
0.0546865
0.137942
0.0921461
0.140888
0.166899
0.163288
0.196523
0.170779
0.211781
0.20084
0.238063
0.242036
0.258255
0.276819
0.298486
0.310293
0.324952
0.338147
0.362146
0.373693
0.398366
0.411552
0.430916
0.468245
0.567074
0.545138
0.416557
0.409031
0.467586
0.514656
0.56948
0.583432
0.591841
0.610983
0.632169
0.660918
0.695187
0.73625
0.668985
0.495004
0.362757
0.220318
0.0466999
0
0
0
0
0
0
0
0
0
0
0
0
0
0
0
0
0
0
0
0
0
0
0
0
0
0
0
0
0
0
0
0
0
0
0
0
0
0
0
0
0
0
0
0
0
0
0
0
0
0
0
0
0
0
0
0
0.0302105
0.405097
0.53498
0.366883
0.875136
0.334215
0
0
0
0
0
0
0
0
0
0
0
0
0
0
0
0
0
0
0
0
0
0
0
0
0
0
0
0.180633
0
0
0
0.484168
0
0
0
0.169931
0
0
0
0
0
0.0349622
0
0
0
0
0
0.154567
0
0
0
0
0
0
0
0
0
0
0
0
0
0
0
0
0
0
0
0
0
0
0
0.946258
0.992889
0.893657
0.544848
0.197319
0.0237853
0.00896876
0.00489238
0.00461634
0.00405707
0.00363286
0.00252653
0.00164849
0.000601842
0
0
0
0.000415322
0.000765753
0.000483919
3.08607e-05
0
0
0
0
0
0
0
0
0
0
0
0
0
0
0
0
0.000761563
0.00625182
0.0106017
0.0122243
0.0094591
0.0053333
0.00448563
0.00529917
0.00593763
0.007727
0.00770487
0.0034155
0.00113564
0
0
0
0
0
0
0
0
0
0
0
0
0
0
0
0
0
0
0
0
0
0
0
0
0
0
0.000568359
0.00313022
0.020824
0.0221819
0.0399529
0.048233
0.0641444
0.0675057
0.190098
0.165026
0.310666
0.933487
0
0.2287
0.137579
0.0205936
0
0.0435275
0.0486209
0.195111
0.305506
0.498161
0.14808
0
0.0137028
0.023969
0.00939835
0.0342815
0.100763
0
0.11655
0
0.0727706
0
0
0.011718
0
0.0521531
0.0112373
0.048145
0
0
0.00405169
0.0836881
0
0.0647181
0
0.0441836
0.261335
0.0167564
0
0
0.0274451
0.0870567
0
0
0.726549