/*--------------------------------*- C++ -*----------------------------------*\
| =========                 |                                                 |
| \\      /  F ield         | OpenFOAM: The Open Source CFD Toolbox           |
|  \\    /   O peration     | Version:  v2006                                 |
|   \\  /    A nd           | Website:  www.openfoam.com                      |
|    \\/     M anipulation  |                                                 |
\*---------------------------------------------------------------------------*/
FoamFile
{
    version     2.0;
    format      ascii;
    class       volScalarField;
    location    "220";
    object      nut;
}
// * * * * * * * * * * * * * * * * * * * * * * * * * * * * * * * * * * * * * //

dimensions      [0 2 -1 0 0 0 0];


internalField   nonuniform List<scalar> 
93840
(
2.91462e-08
2.99593e-08
3.13531e-08
3.37802e-08
3.08008e-08
3.47069e-08
3.01189e-08
3.13037e-08
2.93915e-08
2.91841e-08
2.85105e-08
2.74282e-08
2.8395e-08
7.33764e-08
2.2637e-06
2.02991e-05
9.80757e-05
0.000154238
7.00448e-06
2.29056e-05
0.000202219
0.000454065
0.000145037
4.75357e-06
6.36929e-05
4.24581e-05
4.55795e-05
3.35295e-05
2.17103e-05
1.79793e-05
1.9844e-05
1.8608e-05
1.99823e-05
1.76107e-05
1.8086e-05
1.71926e-05
1.69058e-05
1.66743e-05
1.61686e-05
1.60936e-05
1.56668e-05
1.5579e-05
1.5234e-05
1.51117e-05
1.48523e-05
1.46794e-05
1.44859e-05
1.43187e-05
1.41613e-05
1.39985e-05
1.38661e-05
1.37233e-05
1.35908e-05
1.3444e-05
1.33915e-05
1.33457e-05
1.32659e-05
1.3174e-05
1.30556e-05
1.3002e-05
1.29663e-05
1.29158e-05
1.28633e-05
1.28831e-05
1.2868e-05
1.28612e-05
1.28622e-05
1.28828e-05
1.2854e-05
1.28468e-05
1.28246e-05
1.27978e-05
1.27676e-05
1.27533e-05
1.27029e-05
1.26845e-05
1.2634e-05
1.26135e-05
1.25721e-05
1.25678e-05
1.25017e-05
1.25032e-05
1.24517e-05
1.24793e-05
1.24587e-05
1.24702e-05
1.24824e-05
1.24814e-05
1.25127e-05
1.25227e-05
1.26167e-05
1.26799e-05
1.2789e-05
1.28903e-05
1.30286e-05
1.31835e-05
1.33516e-05
1.35185e-05
1.36769e-05
1.3843e-05
1.39937e-05
1.41311e-05
1.42727e-05
1.45928e-05
1.48891e-05
1.4913e-05
1.4936e-05
1.51777e-05
1.54611e-05
1.57682e-05
1.60938e-05
1.64232e-05
1.674e-05
1.71076e-05
1.74258e-05
1.77425e-05
1.80318e-05
1.83653e-05
1.86305e-05
1.8925e-05
1.91673e-05
1.94348e-05
1.95627e-05
1.97558e-05
1.97322e-05
1.9708e-05
1.98314e-05
1.95318e-05
1.96552e-05
1.94587e-05
1.93062e-05
1.9182e-05
1.89738e-05
1.89298e-05
1.87647e-05
1.86812e-05
1.84838e-05
1.84244e-05
1.82703e-05
1.82264e-05
1.81285e-05
1.80356e-05
1.79215e-05
1.78237e-05
1.77398e-05
1.76657e-05
1.75781e-05
1.75025e-05
1.73765e-05
1.72638e-05
1.71423e-05
1.70285e-05
1.68866e-05
1.67516e-05
1.65794e-05
1.64107e-05
1.62143e-05
1.60101e-05
1.57854e-05
1.55696e-05
1.53574e-05
1.51046e-05
1.48123e-05
1.45051e-05
1.41801e-05
1.37463e-05
1.30855e-05
1.18998e-05
9.72622e-06
7.05523e-06
7.73134e-06
1.03881e-05
6.42619e-06
2.06708e-11
1.4892e-07
1.30885e-06
7.4953e-07
1.20513e-07
7.30843e-08
1.02871e-08
8.59939e-11
3.91405e-07
1.72766e-07
2.62286e-07
3.53169e-09
3.88094e-06
7.39017e-06
1.21609e-06
2.56194e-06
1.74844e-05
1.75835e-05
8.5265e-06
1.3146e-05
2.23985e-05
2.8338e-05
3.07733e-05
3.17521e-05
3.22497e-05
3.25129e-05
3.25428e-05
3.25683e-05
3.23684e-05
3.23657e-05
3.21453e-05
3.21508e-05
3.18622e-05
3.1827e-05
3.15383e-05
3.14853e-05
3.12201e-05
3.11953e-05
3.08984e-05
3.08929e-05
3.06112e-05
3.06165e-05
3.0287e-05
3.02746e-05
2.99683e-05
2.99967e-05
2.9667e-05
2.98038e-05
2.95447e-05
2.9587e-05
2.92327e-05
2.92698e-05
2.88701e-05
2.89166e-05
2.85464e-05
2.85775e-05
2.81813e-05
2.82185e-05
2.81288e-05
2.81357e-05
2.81152e-05
2.80446e-05
2.79245e-05
2.77387e-05
2.78107e-05
2.751e-05
2.77193e-05
2.72628e-05
2.77516e-05
2.71243e-05
2.76478e-05
2.70505e-05
2.76594e-05
2.69477e-05
2.77151e-05
2.62257e-05
2.28164e-05
1.41294e-05
7.62258e-06
6.0223e-06
5.96426e-06
5.87692e-06
5.71408e-06
5.49407e-06
5.27929e-06
5.16079e-06
5.24436e-06
5.36602e-06
5.13337e-06
3.46245e-06
2.03985e-06
1.1854e-06
4.77141e-07
2.04946e-07
1.88758e-07
1.65562e-07
1.80026e-07
2.68791e-07
3.94313e-07
7.23332e-07
1.16007e-06
1.37286e-06
1.30606e-06
1.8448e-06
2.35665e-06
2.50322e-06
2.62333e-06
2.64783e-06
2.54694e-06
2.29413e-06
2.01245e-06
1.98742e-06
2.05498e-06
2.81275e-06
4.33145e-06
5.57439e-06
6.18638e-06
6.05067e-06
5.45712e-06
4.10421e-06
2.83518e-06
3.01204e-06
6.31198e-06
8.1167e-06
9.49e-06
1.03815e-05
1.1149e-05
1.17227e-05
1.22263e-05
1.26223e-05
1.2951e-05
1.32163e-05
1.34522e-05
1.36592e-05
1.38379e-05
1.39725e-05
1.40901e-05
1.41665e-05
1.42289e-05
1.42612e-05
1.42934e-05
1.42823e-05
1.42682e-05
1.41962e-05
1.41266e-05
1.39997e-05
1.39092e-05
1.37759e-05
1.36972e-05
1.35425e-05
1.3336e-05
1.28948e-05
1.22465e-05
1.11782e-05
1.01894e-05
9.26502e-06
9.24738e-06
9.29014e-06
9.83477e-06
1.05771e-05
1.05481e-05
1.36299e-05
1.14236e-05
1.91835e-05
2.62633e-05
2.85081e-05
1.67796e-05
2.54518e-05
4.21522e-05
4.05868e-05
6.67568e-05
1.46078e-06
0.000161963
0.000485394
0.000232533
2.7566e-05
1.28622e-05
0.00016568
0.000104903
2.22299e-05
2.55466e-06
8.54256e-08
2.94925e-08
2.75518e-08
2.86077e-08
2.89038e-08
2.92156e-08
3.11146e-08
2.99391e-08
3.48041e-08
3.07465e-08
3.35872e-08
3.14235e-08
2.98664e-08
2.90153e-08
2.88129e-08
2.9853e-08
3.136e-08
3.4049e-08
3.08943e-08
3.47599e-08
3.0144e-08
3.08951e-08
2.93639e-08
2.87528e-08
2.83654e-08
2.73233e-08
2.90444e-08
6.35734e-08
1.94052e-06
1.81194e-05
9.00156e-05
0.000140806
1.27204e-06
1.80918e-05
0.000168187
0.00041491
0.000125374
6.50618e-06
5.91961e-05
4.39712e-05
4.91708e-05
4.14688e-05
3.20934e-05
2.60027e-05
2.06475e-05
2.01763e-05
1.95082e-05
1.82325e-05
1.99474e-05
1.74371e-05
1.9914e-05
1.73364e-05
1.98505e-05
1.74713e-05
1.98483e-05
1.75939e-05
1.97565e-05
1.7732e-05
1.96833e-05
1.7855e-05
1.94394e-05
1.80729e-05
1.91096e-05
1.83124e-05
1.8848e-05
1.84181e-05
1.87292e-05
1.8403e-05
1.86229e-05
1.83766e-05
1.86354e-05
1.84198e-05
1.85802e-05
1.83665e-05
1.85188e-05
1.83496e-05
1.84723e-05
1.83e-05
1.84386e-05
1.83064e-05
1.83982e-05
1.83166e-05
1.83987e-05
1.83219e-05
1.83958e-05
1.83332e-05
1.84033e-05
1.83505e-05
1.84353e-05
1.8378e-05
1.84691e-05
1.84135e-05
1.85026e-05
1.84762e-05
1.85568e-05
1.85546e-05
1.86094e-05
1.86204e-05
1.86767e-05
1.87239e-05
1.87809e-05
1.88207e-05
1.88721e-05
1.89106e-05
1.89587e-05
1.90099e-05
1.90626e-05
1.91097e-05
1.91559e-05
1.92036e-05
1.92517e-05
1.92972e-05
1.93415e-05
1.93744e-05
1.94204e-05
1.94331e-05
1.94334e-05
1.94625e-05
1.95393e-05
1.95874e-05
1.95633e-05
1.9556e-05
1.9573e-05
1.95788e-05
1.95779e-05
1.95612e-05
1.95366e-05
1.95071e-05
1.94651e-05
1.94231e-05
1.93559e-05
1.92905e-05
1.91884e-05
1.90991e-05
1.89596e-05
1.88323e-05
1.86474e-05
1.84962e-05
1.82701e-05
1.81179e-05
1.78761e-05
1.76855e-05
1.74832e-05
1.72359e-05
1.70536e-05
1.68224e-05
1.66337e-05
1.64164e-05
1.62105e-05
1.59949e-05
1.57975e-05
1.55924e-05
1.53872e-05
1.51841e-05
1.49646e-05
1.47514e-05
1.45379e-05
1.4327e-05
1.4103e-05
1.38777e-05
1.36261e-05
1.33803e-05
1.3104e-05
1.28408e-05
1.25489e-05
1.22461e-05
1.19071e-05
1.15391e-05
1.11107e-05
1.062e-05
1.00732e-05
9.52988e-06
8.99357e-06
8.45374e-06
7.71925e-06
6.65418e-06
5.43306e-06
4.69233e-06
4.55638e-06
4.32266e-06
3.28939e-06
1.70126e-06
2.81148e-07
8.25925e-08
2.15367e-07
4.34204e-07
6.5554e-07
6.10443e-09
3.42436e-07
4.45286e-08
4.83374e-08
1.04922e-08
3.21365e-08
5.06257e-08
1.54169e-07
1.76519e-11
7.90734e-08
8.66029e-08
4.58267e-08
1.99119e-09
3.0713e-09
7.95138e-11
3.14989e-08
1.26137e-06
4.86135e-07
8.81669e-07
3.71964e-07
3.38393e-06
7.16772e-06
8.57247e-06
8.37963e-06
8.97888e-06
1.12359e-05
1.3599e-05
1.51559e-05
1.60253e-05
1.71964e-05
1.8425e-05
1.97133e-05
2.06691e-05
2.1544e-05
2.21301e-05
2.267e-05
2.30313e-05
2.3414e-05
2.36396e-05
2.39436e-05
2.41133e-05
2.43777e-05
2.45259e-05
2.47843e-05
2.48712e-05
2.50891e-05
2.51629e-05
2.5416e-05
2.54981e-05
2.57757e-05
2.58084e-05
2.60825e-05
2.60921e-05
2.63929e-05
2.63707e-05
2.66698e-05
2.66185e-05
2.69266e-05
2.68224e-05
2.71731e-05
2.70435e-05
2.74195e-05
2.73412e-05
2.76746e-05
2.7672e-05
2.78831e-05
2.80466e-05
2.8066e-05
2.83648e-05
2.83181e-05
2.85487e-05
2.87983e-05
2.84463e-05
2.92434e-05
2.93685e-05
2.85229e-05
2.44435e-05
2.90728e-05
3.63607e-05
3.96886e-05
3.96526e-05
3.82014e-05
3.66059e-05
3.48123e-05
3.3097e-05
3.11931e-05
2.9391e-05
2.71374e-05
2.30908e-05
1.52416e-05
6.62867e-06
3.95529e-06
3.57734e-06
3.46941e-06
3.35816e-06
3.34192e-06
3.52256e-06
3.96008e-06
4.40082e-06
5.28536e-06
6.30582e-06
7.31291e-06
8.38116e-06
1.04198e-05
1.22336e-05
1.18021e-05
1.13754e-05
8.83686e-06
6.67943e-06
6.08277e-06
6.58539e-06
7.96295e-06
9.67421e-06
1.15857e-05
1.39841e-05
1.59926e-05
1.65166e-05
1.58236e-05
1.51434e-05
1.43219e-05
1.35303e-05
1.3323e-05
1.22618e-05
1.3159e-05
1.35628e-05
1.38788e-05
1.40652e-05
1.42358e-05
1.43913e-05
1.46156e-05
1.48223e-05
1.51266e-05
1.54752e-05
1.59538e-05
1.64373e-05
1.69351e-05
1.74459e-05
1.80114e-05
1.85838e-05
1.92324e-05
1.99373e-05
2.0709e-05
2.15456e-05
2.24362e-05
2.33983e-05
2.44525e-05
2.56928e-05
2.71782e-05
2.89856e-05
3.10093e-05
3.30322e-05
3.49057e-05
3.65254e-05
3.81487e-05
3.96749e-05
4.12393e-05
4.25316e-05
4.40459e-05
4.62513e-05
4.91909e-05
5.00354e-05
5.08938e-05
5.118e-05
6.21788e-05
6.3374e-05
6.99211e-05
4.35456e-05
2.73435e-05
3.96102e-05
3.85969e-05
6.96957e-05
7.03497e-06
0.000180496
0.000517568
0.000267225
3.26547e-05
2.02368e-05
0.000178344
0.00011241
2.43868e-05
2.88649e-06
9.663e-08
2.87985e-08
2.76392e-08
2.85086e-08
2.9214e-08
2.91096e-08
3.14298e-08
2.99545e-08
3.48059e-08
3.08067e-08
3.36998e-08
3.11733e-08
2.99996e-08
2.90496e-08
2.92671e-08
3.00762e-08
3.1294e-08
3.39121e-08
3.10353e-08
3.48395e-08
3.00339e-08
3.13589e-08
2.91975e-08
2.90957e-08
2.83526e-08
2.76661e-08
2.84369e-08
5.68563e-08
1.61742e-06
1.59333e-05
8.15746e-05
0.000126664
3.57904e-08
1.37212e-05
0.000134983
0.000370918
0.000105595
1.47958e-06
5.34316e-05
4.33258e-05
4.8837e-05
4.61856e-05
4.1675e-05
3.74066e-05
3.45804e-05
3.27011e-05
3.16086e-05
3.16346e-05
3.05602e-05
3.09919e-05
3.03762e-05
3.04986e-05
3.02254e-05
3.02844e-05
2.99884e-05
3.01371e-05
2.98428e-05
2.99916e-05
2.97756e-05
2.97884e-05
2.97392e-05
2.96072e-05
2.96865e-05
2.94965e-05
2.95837e-05
2.94113e-05
2.94944e-05
2.92908e-05
2.93973e-05
2.92443e-05
2.94349e-05
2.92239e-05
2.93434e-05
2.91125e-05
2.9248e-05
2.90569e-05
2.9155e-05
2.89871e-05
2.91155e-05
2.89742e-05
2.90728e-05
2.89901e-05
2.90725e-05
2.89813e-05
2.90587e-05
2.89663e-05
2.90469e-05
2.89558e-05
2.9047e-05
2.89405e-05
2.90314e-05
2.89163e-05
2.89935e-05
2.89133e-05
2.89484e-05
2.88883e-05
2.88766e-05
2.88153e-05
2.88116e-05
2.8753e-05
2.87554e-05
2.86549e-05
2.86077e-05
2.85004e-05
2.84198e-05
2.83305e-05
2.82283e-05
2.81191e-05
2.79981e-05
2.7879e-05
2.77513e-05
2.76066e-05
2.74594e-05
2.72681e-05
2.71034e-05
2.68484e-05
2.65962e-05
2.63677e-05
2.62342e-05
2.60359e-05
2.56924e-05
2.53591e-05
2.50584e-05
2.47193e-05
2.43814e-05
2.39988e-05
2.36146e-05
2.32021e-05
2.27975e-05
2.2379e-05
2.19498e-05
2.1521e-05
2.10889e-05
2.06674e-05
2.02259e-05
1.97916e-05
1.93628e-05
1.89509e-05
1.85408e-05
1.81589e-05
1.77206e-05
1.73848e-05
1.69359e-05
1.65859e-05
1.61817e-05
1.58168e-05
1.54115e-05
1.50257e-05
1.462e-05
1.42167e-05
1.3821e-05
1.33946e-05
1.29769e-05
1.25357e-05
1.20956e-05
1.16368e-05
1.12004e-05
1.07186e-05
1.02361e-05
9.70138e-06
9.11918e-06
8.50029e-06
7.81795e-06
7.13952e-06
6.44134e-06
5.72234e-06
4.98e-06
4.30838e-06
3.72764e-06
3.07691e-06
2.21689e-06
1.47358e-06
1.24536e-06
1.24489e-06
7.75639e-07
2.83849e-07
1.6755e-07
1.34604e-07
3.44683e-08
1.52271e-08
6.90862e-09
1.53055e-08
3.84457e-08
6.84072e-08
7.39089e-08
1.26148e-07
9.07511e-08
6.50884e-08
2.44274e-09
4.81223e-09
2.39525e-09
1.92463e-08
7.11348e-08
1.07029e-07
8.37748e-08
1.21509e-07
1.33897e-07
3.82012e-08
2.44074e-07
2.45582e-07
3.26936e-07
3.58696e-07
1.7105e-07
1.90441e-07
2.9346e-07
2.4747e-07
2.77705e-08
6.60213e-08
7.81811e-07
9.84069e-07
1.04147e-07
1.02331e-07
1.0194e-06
1.72049e-06
2.0624e-06
2.40576e-06
2.96935e-06
4.10088e-06
5.42698e-06
6.71654e-06
7.96803e-06
9.21659e-06
1.04638e-05
1.17594e-05
1.29956e-05
1.40025e-05
1.49863e-05
1.58797e-05
1.68657e-05
1.77313e-05
1.86372e-05
1.92624e-05
2.00101e-05
2.05208e-05
2.13656e-05
2.18508e-05
2.26945e-05
2.3043e-05
2.38662e-05
2.41268e-05
2.50345e-05
2.52354e-05
2.61388e-05
2.62488e-05
2.72059e-05
2.72365e-05
2.82021e-05
2.81686e-05
2.90816e-05
2.91245e-05
2.99057e-05
3.0183e-05
3.06347e-05
3.13627e-05
3.13074e-05
3.2413e-05
3.21004e-05
3.30862e-05
3.33607e-05
3.33069e-05
3.43184e-05
3.47524e-05
3.47292e-05
3.06118e-05
3.71289e-05
5.07813e-05
6.06289e-05
6.60477e-05
6.81226e-05
6.89974e-05
6.83014e-05
6.71743e-05
6.4861e-05
6.26839e-05
5.90821e-05
5.23714e-05
4.06419e-05
2.29847e-05
1.08886e-05
8.58708e-06
8.13933e-06
7.70871e-06
7.63604e-06
8.03153e-06
8.82578e-06
9.55426e-06
1.1199e-05
1.31654e-05
1.5042e-05
1.68413e-05
2.08421e-05
2.46413e-05
2.387e-05
2.41559e-05
1.92826e-05
1.37772e-05
1.03078e-05
1.12819e-05
1.35777e-05
1.70233e-05
2.28608e-05
2.99065e-05
3.54754e-05
3.74224e-05
3.5792e-05
3.39481e-05
3.15141e-05
3.05707e-05
2.50646e-05
2.41452e-05
2.67348e-05
2.81703e-05
2.92265e-05
3.01129e-05
3.08426e-05
3.16228e-05
3.24335e-05
3.3259e-05
3.41277e-05
3.50148e-05
3.59181e-05
3.68341e-05
3.77577e-05
3.87032e-05
3.96466e-05
4.06362e-05
4.16791e-05
4.28244e-05
4.40325e-05
4.53533e-05
4.67317e-05
4.82488e-05
4.99031e-05
5.18746e-05
5.42111e-05
5.70168e-05
6.00345e-05
6.29352e-05
6.53868e-05
6.73617e-05
6.89991e-05
7.03617e-05
7.15984e-05
7.27226e-05
7.49137e-05
7.95941e-05
8.36387e-05
8.63964e-05
8.99989e-05
9.16712e-05
9.57486e-05
9.24382e-05
9.20799e-05
7.6229e-05
3.48355e-05
3.91104e-05
3.66008e-05
7.14606e-05
4.81062e-08
0.000197931
0.000546363
0.000303065
3.88493e-05
2.79636e-05
0.000190539
0.000119755
2.66063e-05
3.22858e-06
1.16841e-07
2.97682e-08
2.77035e-08
2.85819e-08
2.88053e-08
2.90904e-08
3.09656e-08
2.98514e-08
3.4741e-08
3.08028e-08
3.38804e-08
3.13625e-08
2.98371e-08
2.90308e-08
2.90409e-08
2.98393e-08
3.13511e-08
3.37074e-08
3.1138e-08
3.47876e-08
3.00171e-08
3.07965e-08
2.94082e-08
2.8633e-08
2.8259e-08
2.71989e-08
2.80119e-08
4.89673e-08
1.32801e-06
1.39535e-05
7.37203e-05
0.00011367
1.3336e-07
1.02738e-05
0.000106082
0.000327543
8.81352e-05
3.03557e-06
4.78762e-05
4.29717e-05
4.84063e-05
4.70292e-05
4.51186e-05
4.34131e-05
4.08546e-05
4.01197e-05
3.94958e-05
3.86514e-05
3.87779e-05
3.80193e-05
3.82529e-05
3.77196e-05
3.78995e-05
3.75148e-05
3.76192e-05
3.7363e-05
3.74072e-05
3.72364e-05
3.72455e-05
3.70918e-05
3.712e-05
3.69497e-05
3.70134e-05
3.68282e-05
3.6895e-05
3.67238e-05
3.67832e-05
3.66106e-05
3.66805e-05
3.65428e-05
3.66611e-05
3.64804e-05
3.65587e-05
3.63573e-05
3.64386e-05
3.62699e-05
3.63258e-05
3.61828e-05
3.62555e-05
3.61329e-05
3.61934e-05
3.61052e-05
3.61501e-05
3.60517e-05
3.6088e-05
3.59775e-05
3.60209e-05
3.58953e-05
3.59435e-05
3.58001e-05
3.5838e-05
3.56784e-05
3.56946e-05
3.55582e-05
3.55182e-05
3.53944e-05
3.52976e-05
3.5165e-05
3.50737e-05
3.49036e-05
3.48216e-05
3.45926e-05
3.44437e-05
3.42032e-05
3.39996e-05
3.37664e-05
3.35182e-05
3.32595e-05
3.298e-05
3.26961e-05
3.23917e-05
3.20641e-05
3.17288e-05
3.13261e-05
3.09608e-05
3.04748e-05
3.00255e-05
2.95537e-05
2.91538e-05
2.87047e-05
2.81323e-05
2.75457e-05
2.6975e-05
2.63503e-05
2.57385e-05
2.50622e-05
2.44069e-05
2.37012e-05
2.30243e-05
2.23279e-05
2.1649e-05
2.09601e-05
2.03059e-05
1.96577e-05
1.9022e-05
1.83723e-05
1.77867e-05
1.71786e-05
1.66373e-05
1.60764e-05
1.55141e-05
1.50056e-05
1.44199e-05
1.39165e-05
1.33377e-05
1.28489e-05
1.22458e-05
1.1735e-05
1.11283e-05
1.057e-05
9.96693e-06
9.34344e-06
8.68034e-06
7.99096e-06
7.26052e-06
6.51414e-06
5.79647e-06
5.04785e-06
4.34797e-06
3.6419e-06
2.98279e-06
2.38822e-06
1.75188e-06
1.16424e-06
7.61393e-07
5.6844e-07
3.34973e-07
1.57301e-07
1.10598e-07
8.56211e-08
2.01746e-08
1.90408e-08
6.43745e-08
1.03414e-07
5.37224e-08
7.24862e-08
3.16715e-08
1.49836e-08
1.42862e-08
2.1311e-08
1.37347e-08
5.62541e-08
9.5452e-08
1.60078e-07
1.31358e-07
7.03005e-08
1.90935e-08
1.43557e-08
1.63124e-08
1.59896e-08
4.12084e-08
2.03187e-08
1.0679e-07
2.44021e-07
1.02259e-07
1.21325e-09
2.07796e-08
1.82201e-07
2.4913e-07
1.49781e-07
5.02442e-08
3.61461e-08
1.5013e-08
9.18214e-09
1.35865e-08
4.65459e-08
1.12702e-08
1.36903e-08
6.3255e-08
6.01546e-08
6.10207e-09
1.83028e-08
4.05461e-08
2.77702e-08
2.48668e-08
2.58262e-08
2.25478e-08
3.54018e-08
1.04538e-07
1.75666e-07
4.2064e-07
7.43644e-07
1.38962e-06
2.00625e-06
2.90036e-06
3.56621e-06
4.27171e-06
4.83973e-06
5.92771e-06
7.06163e-06
8.48356e-06
9.40166e-06
1.0696e-05
1.16784e-05
1.33423e-05
1.43712e-05
1.59692e-05
1.66745e-05
1.81037e-05
1.85732e-05
2.00748e-05
2.04563e-05
2.19257e-05
2.21644e-05
2.36898e-05
2.38871e-05
2.53918e-05
2.55325e-05
2.68781e-05
2.711e-05
2.8207e-05
2.88034e-05
2.93929e-05
3.06335e-05
3.05084e-05
3.23115e-05
3.17813e-05
3.34672e-05
3.35291e-05
3.43446e-05
3.46544e-05
3.60104e-05
3.69302e-05
3.38972e-05
4.17715e-05
5.89939e-05
7.39497e-05
8.4198e-05
8.98437e-05
9.34967e-05
9.47674e-05
9.51029e-05
9.34926e-05
9.17812e-05
8.79569e-05
7.97088e-05
6.55593e-05
4.43979e-05
2.23142e-05
1.41445e-05
1.2946e-05
1.23982e-05
1.25254e-05
1.32118e-05
1.42261e-05
1.49483e-05
1.70909e-05
1.97787e-05
2.23155e-05
2.45273e-05
3.02703e-05
3.57826e-05
3.47425e-05
3.58214e-05
3.00527e-05
2.13657e-05
1.52136e-05
1.48012e-05
1.69697e-05
2.38656e-05
3.56324e-05
4.79784e-05
5.61218e-05
5.92727e-05
5.81543e-05
5.62871e-05
5.2694e-05
4.70489e-05
3.79688e-05
4.02628e-05
4.4762e-05
4.7428e-05
4.96191e-05
5.08747e-05
5.20101e-05
5.29865e-05
5.39665e-05
5.4926e-05
5.59836e-05
5.70354e-05
5.80498e-05
5.91217e-05
6.01895e-05
6.12877e-05
6.23913e-05
6.35658e-05
6.48032e-05
6.61777e-05
6.7623e-05
6.9221e-05
7.08777e-05
7.27116e-05
7.46875e-05
7.70143e-05
7.96971e-05
8.28287e-05
8.60658e-05
8.90857e-05
9.14594e-05
9.30344e-05
9.38536e-05
9.40561e-05
9.39987e-05
9.37015e-05
9.53221e-05
9.98782e-05
0.000102095
0.000101641
0.000102097
0.00010284
0.000105335
0.000104586
0.000102179
9.78517e-05
4.36169e-05
3.94127e-05
3.50916e-05
7.19265e-05
4.81399e-06
0.000212742
0.000569291
0.000335156
4.51807e-05
3.52713e-05
0.000201145
0.000126105
2.85892e-05
3.5493e-06
1.33243e-07
3.00228e-08
2.80566e-08
2.8783e-08
2.92628e-08
2.91244e-08
3.13877e-08
3.00789e-08
3.47268e-08
3.07816e-08
3.38543e-08
3.11345e-08
3.01101e-08
2.90917e-08
2.91728e-08
3.00557e-08
3.12036e-08
3.36233e-08
3.11394e-08
3.47837e-08
3.04485e-08
3.12596e-08
2.92769e-08
2.90182e-08
2.82862e-08
2.76592e-08
2.82656e-08
4.50573e-08
1.04114e-06
1.2003e-05
6.55894e-05
0.000100193
3.52785e-07
7.21913e-06
7.92545e-05
0.000280464
7.1082e-05
3.35867e-07
4.19145e-05
4.1353e-05
4.81299e-05
4.86148e-05
4.76287e-05
4.68814e-05
4.58589e-05
4.51937e-05
4.45908e-05
4.42196e-05
4.38971e-05
4.3654e-05
4.34873e-05
4.33072e-05
4.32198e-05
4.3067e-05
4.3016e-05
4.28863e-05
4.28544e-05
4.27383e-05
4.27183e-05
4.25964e-05
4.25966e-05
4.24629e-05
4.24841e-05
4.234e-05
4.23694e-05
4.22287e-05
4.22533e-05
4.21168e-05
4.21466e-05
4.20308e-05
4.20811e-05
4.19377e-05
4.19661e-05
4.17993e-05
4.18267e-05
4.1685e-05
4.16861e-05
4.15701e-05
4.15754e-05
4.1468e-05
4.14724e-05
4.13738e-05
4.13658e-05
4.12516e-05
4.12313e-05
4.10965e-05
4.10799e-05
4.09171e-05
4.08982e-05
4.07153e-05
4.06731e-05
4.04675e-05
4.03957e-05
4.01976e-05
4.00634e-05
3.98633e-05
3.96656e-05
3.94498e-05
3.92488e-05
3.89593e-05
3.87691e-05
3.84047e-05
3.81416e-05
3.77578e-05
3.74146e-05
3.70224e-05
3.66123e-05
3.619e-05
3.57331e-05
3.52662e-05
3.47646e-05
3.42382e-05
3.36957e-05
3.30696e-05
3.24922e-05
3.1773e-05
3.11237e-05
3.0379e-05
2.96862e-05
2.89917e-05
2.82132e-05
2.73843e-05
2.6556e-05
2.56612e-05
2.47996e-05
2.38592e-05
2.29749e-05
2.20142e-05
2.11123e-05
2.01849e-05
1.9311e-05
1.84039e-05
1.75826e-05
1.67447e-05
1.59595e-05
1.51137e-05
1.44048e-05
1.36008e-05
1.29521e-05
1.22077e-05
1.15435e-05
1.0847e-05
1.01486e-05
9.44131e-06
8.68313e-06
8.00278e-06
7.15431e-06
6.45043e-06
5.59987e-06
4.88611e-06
4.11082e-06
3.42334e-06
2.72782e-06
2.17116e-06
1.56759e-06
1.08975e-06
6.64425e-07
4.25519e-07
2.13615e-07
1.19822e-07
6.28021e-08
8.08655e-08
2.53758e-08
3.14345e-08
2.42288e-08
5.75119e-08
4.52315e-08
4.33044e-08
1.70668e-08
2.04913e-08
1.59833e-08
3.8688e-08
3.14841e-08
5.90926e-08
4.20984e-08
5.57426e-08
1.95894e-08
1.91228e-08
1.09483e-08
3.15259e-08
5.15419e-08
8.80677e-08
7.85916e-08
7.03184e-08
4.52978e-08
3.41059e-08
2.97077e-08
1.37885e-08
2.54109e-08
2.7019e-08
1.37999e-07
9.66984e-08
5.52282e-08
3.66033e-08
2.59165e-09
1.82565e-08
3.69213e-07
5.1172e-07
2.93736e-07
1.14748e-08
3.10994e-08
6.40985e-09
1.10659e-08
2.8323e-09
4.70474e-09
2.07382e-09
2.22631e-09
5.48753e-10
1.44186e-08
2.28533e-09
1.07877e-08
2.90508e-09
2.59479e-08
7.49254e-09
3.6681e-08
1.43809e-08
6.06315e-08
1.57601e-08
8.79844e-08
1.52625e-08
9.55852e-08
1.84921e-08
1.21038e-07
4.92911e-08
2.16948e-07
9.52955e-08
3.9952e-07
1.08518e-07
5.2189e-07
4.38048e-07
1.3922e-06
1.23352e-06
2.30761e-06
2.34365e-06
3.91712e-06
4.54147e-06
6.43949e-06
6.99441e-06
8.89077e-06
9.50709e-06
1.17079e-05
1.23753e-05
1.44726e-05
1.49641e-05
1.70378e-05
1.75106e-05
1.94662e-05
1.98935e-05
2.15727e-05
2.20861e-05
2.343e-05
2.43902e-05
2.5119e-05
2.68369e-05
2.67195e-05
2.91147e-05
2.84465e-05
3.08446e-05
3.05576e-05
3.24558e-05
3.20644e-05
3.38937e-05
3.60572e-05
3.48679e-05
4.33893e-05
6.34349e-05
8.26121e-05
9.7728e-05
0.000107444
0.000114415
0.000118303
0.00012072
0.00012056
0.000119966
0.000116789
0.000107781
9.18249e-05
6.81457e-05
4.02304e-05
2.25992e-05
1.88209e-05
1.77709e-05
1.79933e-05
1.89511e-05
2.03682e-05
2.1563e-05
2.39093e-05
2.69072e-05
2.98796e-05
3.2299e-05
3.96057e-05
4.65477e-05
4.5377e-05
4.70669e-05
4.13156e-05
3.00309e-05
2.1062e-05
1.85222e-05
2.07422e-05
3.26757e-05
5.09774e-05
6.91169e-05
7.938e-05
8.36798e-05
8.33794e-05
8.15902e-05
7.62737e-05
6.53882e-05
5.53063e-05
6.07393e-05
6.79729e-05
7.22232e-05
7.51459e-05
7.67526e-05
7.7991e-05
7.89605e-05
7.98803e-05
8.07984e-05
8.19842e-05
8.30765e-05
8.41046e-05
8.52309e-05
8.63665e-05
8.75376e-05
8.87418e-05
9.00349e-05
9.13963e-05
9.29259e-05
9.45155e-05
9.62814e-05
9.80797e-05
0.000100061
0.000102127
0.000104509
0.000107129
0.00011012
0.000113099
0.000115798
0.000117716
0.000118567
0.000118293
0.000116745
0.000114521
0.000111649
0.000110651
0.000110412
0.000109042
0.000103962
0.000102378
0.000102031
0.000104749
0.000107334
0.000107497
0.000110532
5.15946e-05
3.88565e-05
3.45e-05
7.11226e-05
1.0785e-06
0.000226147
0.000589906
0.000367854
5.21819e-05
4.28111e-05
0.000211429
0.000132297
3.05799e-05
3.87424e-06
1.56292e-07
3.02524e-08
2.77606e-08
2.88932e-08
2.88389e-08
2.91305e-08
3.09315e-08
3.00229e-08
3.48506e-08
3.08933e-08
3.38323e-08
3.13756e-08
2.99775e-08
2.90782e-08
2.9043e-08
2.98872e-08
3.12641e-08
3.35637e-08
3.12873e-08
3.48936e-08
2.97591e-08
3.06968e-08
2.92422e-08
2.85603e-08
2.81628e-08
2.6927e-08
2.70486e-08
3.89872e-08
7.70332e-07
1.00598e-05
5.72057e-05
8.63226e-05
7.92958e-09
4.43097e-06
5.545e-05
0.000229532
5.48023e-05
2.16834e-06
3.5454e-05
3.83015e-05
4.5339e-05
4.75397e-05
4.83354e-05
4.81171e-05
4.80053e-05
4.77049e-05
4.74797e-05
4.72903e-05
4.71101e-05
4.69869e-05
4.68629e-05
4.67762e-05
4.6693e-05
4.66214e-05
4.65659e-05
4.64981e-05
4.64646e-05
4.63927e-05
4.63734e-05
4.62917e-05
4.62815e-05
4.6191e-05
4.61906e-05
4.60921e-05
4.60953e-05
4.59938e-05
4.59918e-05
4.58912e-05
4.58878e-05
4.57933e-05
4.5794e-05
4.5683e-05
4.56705e-05
4.55342e-05
4.55176e-05
4.53983e-05
4.53483e-05
4.52511e-05
4.51915e-05
4.50901e-05
4.50335e-05
4.49178e-05
4.48531e-05
4.47136e-05
4.46317e-05
4.4466e-05
4.43794e-05
4.4176e-05
4.40785e-05
4.38539e-05
4.37161e-05
4.34645e-05
4.32884e-05
4.30275e-05
4.27877e-05
4.25039e-05
4.2198e-05
4.18906e-05
4.15654e-05
4.11562e-05
4.08428e-05
4.03391e-05
3.99537e-05
3.94199e-05
3.89237e-05
3.83643e-05
3.77802e-05
3.71846e-05
3.65365e-05
3.58749e-05
3.51643e-05
3.44303e-05
3.36706e-05
3.28185e-05
3.20257e-05
3.10756e-05
3.02248e-05
2.91895e-05
2.82096e-05
2.72929e-05
2.63297e-05
2.52773e-05
2.4218e-05
2.30802e-05
2.20054e-05
2.08406e-05
1.97745e-05
1.86003e-05
1.75207e-05
1.64049e-05
1.53803e-05
1.42879e-05
1.3345e-05
1.23411e-05
1.14336e-05
1.03885e-05
9.54784e-06
8.50581e-06
7.71115e-06
6.72472e-06
5.93489e-06
5.01737e-06
4.28272e-06
3.48345e-06
2.79765e-06
2.20782e-06
1.56122e-06
1.16615e-06
6.69738e-07
4.33295e-07
2.22159e-07
1.31668e-07
6.67984e-08
7.27447e-08
3.8244e-08
4.91527e-08
3.20339e-08
4.15763e-08
3.59517e-08
3.82954e-08
3.89582e-08
5.15534e-08
2.18991e-08
3.61957e-08
2.10439e-08
5.41664e-08
4.79203e-08
3.60486e-08
2.81987e-08
2.51282e-08
3.53344e-08
4.96457e-08
6.5598e-08
6.85305e-08
5.47946e-08
3.18027e-08
1.91328e-08
1.29518e-08
2.16573e-08
1.95384e-08
4.5286e-08
5.21601e-08
9.81223e-08
5.31911e-08
6.1632e-08
9.28504e-09
1.34358e-08
3.02904e-09
2.78748e-08
2.08091e-08
1.07091e-07
1.63452e-07
6.90949e-08
9.44355e-08
1.05799e-07
2.40683e-08
1.63087e-07
2.07294e-07
2.17044e-10
7.73895e-11
1.12339e-08
1.0638e-10
3.66656e-09
8.56533e-10
5.98118e-09
1.56645e-09
7.75493e-09
1.48807e-09
1.98726e-08
2.3101e-09
2.59489e-08
3.21745e-09
4.1815e-08
5.13156e-09
6.03346e-08
8.42438e-09
9.38517e-08
7.34098e-09
1.41303e-07
4.48084e-09
2.15612e-07
2.35783e-09
3.24968e-07
2.04252e-09
4.13371e-07
5.19864e-09
4.25956e-07
3.69388e-09
4.36523e-07
2.86875e-10
5.37983e-07
7.24292e-10
5.08737e-07
7.96334e-10
8.80847e-07
1.49239e-08
1.25536e-06
3.33675e-07
2.1361e-06
9.98619e-07
3.16847e-06
3.02451e-06
5.20474e-06
5.27377e-06
7.50628e-06
8.15265e-06
1.05142e-05
1.13772e-05
1.33901e-05
1.4377e-05
1.59866e-05
1.74184e-05
1.83068e-05
2.04925e-05
2.04609e-05
2.33801e-05
2.26435e-05
2.57257e-05
2.51425e-05
2.79077e-05
2.7391e-05
2.89898e-05
3.22613e-05
3.38772e-05
4.29291e-05
6.46471e-05
8.71177e-05
0.000106855
0.000120918
0.000131623
0.00013862
0.000143602
0.000145434
0.000146431
0.000144566
0.00013555
0.000118523
9.32388e-05
6.21323e-05
3.56308e-05
2.6494e-05
2.41806e-05
2.43448e-05
2.54804e-05
2.71112e-05
2.85286e-05
3.14859e-05
3.50175e-05
3.78334e-05
4.0037e-05
4.85357e-05
5.65395e-05
5.54543e-05
5.82441e-05
5.27904e-05
3.92333e-05
2.7144e-05
2.20913e-05
2.51246e-05
4.36574e-05
6.86808e-05
9.20358e-05
0.000104164
0.0001098
0.000110434
0.00010844
0.000101035
8.427e-05
7.60762e-05
8.56906e-05
9.62961e-05
0.00010033
0.000103523
0.000105337
0.000106777
0.000107932
0.000109084
0.000110392
0.000111815
0.000113038
0.000114214
0.000115474
0.000116736
0.000118049
0.000119399
0.000120852
0.00012234
0.000124004
0.000125674
0.000127525
0.000129335
0.00013133
0.00013328
0.000135458
0.000137622
0.000139974
0.000142126
0.000143994
0.000145022
0.000144755
0.000142953
0.000139442
0.000134748
0.000128836
0.000123594
0.000118463
0.00011345
0.000104643
9.93558e-05
9.63424e-05
9.85651e-05
0.000104038
0.000108737
0.000114379
5.91556e-05
3.9966e-05
3.6705e-05
6.79867e-05
6.52058e-06
0.000238081
0.000607291
0.00039995
5.93343e-05
5.04961e-05
0.000221308
0.000138211
3.25782e-05
4.21346e-06
1.81195e-07
3.10754e-08
2.818e-08
2.90269e-08
2.92864e-08
2.91483e-08
3.13896e-08
3.01767e-08
3.49112e-08
3.0834e-08
3.38717e-08
3.1283e-08
3.01398e-08
2.91413e-08
2.91363e-08
3.00118e-08
3.11426e-08
3.3559e-08
3.11817e-08
3.4862e-08
3.05841e-08
3.11964e-08
2.9227e-08
2.89033e-08
2.84911e-08
2.79612e-08
2.8201e-08
3.65424e-08
5.22483e-07
8.19395e-06
4.86516e-05
7.21585e-05
6.63069e-08
3.12335e-06
3.53476e-05
0.00017538
3.92141e-05
2.64125e-06
2.88226e-05
3.49197e-05
4.26142e-05
4.53048e-05
4.7231e-05
4.7711e-05
4.81573e-05
4.82791e-05
4.83601e-05
4.84097e-05
4.83922e-05
4.84205e-05
4.83846e-05
4.84013e-05
4.83688e-05
4.83777e-05
4.83508e-05
4.83527e-05
4.83337e-05
4.83234e-05
4.83107e-05
4.82852e-05
4.8273e-05
4.82357e-05
4.82253e-05
4.81777e-05
4.81652e-05
4.81067e-05
4.80865e-05
4.80213e-05
4.79947e-05
4.79223e-05
4.78893e-05
4.78057e-05
4.77622e-05
4.76522e-05
4.76007e-05
4.74989e-05
4.74034e-05
4.73174e-05
4.7198e-05
4.70946e-05
4.69778e-05
4.68396e-05
4.6718e-05
4.65454e-05
4.64019e-05
4.6198e-05
4.60394e-05
4.5791e-05
4.56113e-05
4.53409e-05
4.50997e-05
4.4802e-05
4.45119e-05
4.41888e-05
4.38352e-05
4.34652e-05
4.30464e-05
4.26408e-05
4.21809e-05
4.16565e-05
4.12089e-05
4.05639e-05
4.00492e-05
3.9361e-05
3.87012e-05
3.79705e-05
3.7204e-05
3.64307e-05
3.55825e-05
3.47219e-05
3.3798e-05
3.2855e-05
3.18766e-05
3.08031e-05
2.97987e-05
2.86261e-05
2.75778e-05
2.62551e-05
2.50195e-05
2.39117e-05
2.27869e-05
2.1542e-05
2.02888e-05
1.89451e-05
1.76991e-05
1.63491e-05
1.51426e-05
1.37899e-05
1.25614e-05
1.12607e-05
1.00672e-05
8.73477e-06
7.62748e-06
6.39045e-06
5.3967e-06
4.211e-06
3.48515e-06
2.46461e-06
2.03158e-06
1.1774e-06
1.00556e-06
3.11851e-07
3.73671e-07
9.11264e-08
1.41529e-07
2.42538e-08
8.8241e-08
2.26757e-08
5.58168e-08
1.9318e-08
7.49561e-08
1.15542e-08
8.08633e-08
1.3605e-08
6.40237e-08
1.70518e-08
6.50096e-08
1.31728e-08
7.18618e-08
1.22093e-08
8.60365e-08
1.61676e-08
5.70723e-08
1.5261e-08
7.97907e-08
3.91193e-08
9.12906e-08
1.46203e-08
5.34779e-08
1.22922e-08
6.74647e-08
2.48696e-08
1.05713e-07
4.13568e-08
8.9324e-08
1.8624e-08
4.29446e-08
1.29877e-08
6.79057e-08
4.50699e-08
1.62376e-07
8.41497e-08
1.33594e-07
3.39039e-08
4.37793e-08
7.79864e-09
2.46347e-08
1.11377e-08
3.3618e-08
4.42012e-08
6.01328e-08
1.23845e-07
6.04748e-08
2.82399e-08
4.36857e-09
5.16844e-08
3.51837e-07
1.63346e-07
1.65638e-08
3.80158e-09
2.57559e-08
6.62938e-11
2.51211e-08
1.41829e-10
1.63898e-08
1.0099e-10
1.55337e-08
1.05553e-10
2.35566e-08
2.58499e-10
4.16993e-08
7.94853e-10
6.75203e-08
1.61453e-09
8.80097e-08
3.26436e-09
9.75048e-08
2.68688e-09
7.72416e-08
8.67816e-10
6.70619e-08
2.115e-10
7.47588e-08
6.72211e-11
9.03553e-08
2.25924e-10
1.44933e-07
2.81973e-09
2.61243e-07
1.12136e-08
3.59003e-07
1.84031e-08
3.20127e-07
5.32302e-09
3.76721e-07
5.55109e-10
4.30842e-07
1.11495e-08
9.11461e-07
5.87423e-10
1.07522e-06
3.94752e-08
1.22857e-06
1.82806e-07
1.63891e-06
1.12062e-06
2.72781e-06
2.96677e-06
4.40598e-06
5.10436e-06
6.42529e-06
8.08505e-06
9.08873e-06
1.17832e-05
1.1975e-05
1.5426e-05
1.47542e-05
1.84787e-05