/*--------------------------------*- C++ -*----------------------------------*\
| =========                 |                                                 |
| \\      /  F ield         | OpenFOAM: The Open Source CFD Toolbox           |
|  \\    /   O peration     | Version:  v2006                                 |
|   \\  /    A nd           | Website:  www.openfoam.com                      |
|    \\/     M anipulation  |                                                 |
\*---------------------------------------------------------------------------*/
FoamFile
{
    version     2.0;
    format      ascii;
    class       volScalarField;
    location    "220";
    object      nuTilda;
}
// * * * * * * * * * * * * * * * * * * * * * * * * * * * * * * * * * * * * * //

dimensions      [0 2 -1 0 0 0 0];


internalField   nonuniform List<scalar> 
93840
(
3.98889e-07
3.9916e-07
3.99813e-07
4.01757e-07
4.00876e-07
4.03259e-07
4.03164e-07
4.04037e-07
4.03847e-07
4.03915e-07
4.04899e-07
4.02771e-07
4.06662e-07
5.24531e-07
2.40636e-06
2.03012e-05
9.80758e-05
0.000154238
7.02154e-06
2.29073e-05
0.000202219
0.000454065
0.000145037
4.80212e-06
6.36932e-05
4.24588e-05
4.55801e-05
3.35306e-05
2.17129e-05
1.79834e-05
1.98474e-05
1.86117e-05
1.99859e-05
1.7615e-05
1.80901e-05
1.71969e-05
1.69103e-05
1.66788e-05
1.61734e-05
1.60983e-05
1.56718e-05
1.55839e-05
1.52391e-05
1.51168e-05
1.48577e-05
1.46847e-05
1.44914e-05
1.43242e-05
1.4167e-05
1.40042e-05
1.3872e-05
1.37292e-05
1.35968e-05
1.345e-05
1.33976e-05
1.33517e-05
1.32721e-05
1.31801e-05
1.30619e-05
1.30083e-05
1.29726e-05
1.29222e-05
1.28696e-05
1.28894e-05
1.28744e-05
1.28675e-05
1.28685e-05
1.28891e-05
1.28603e-05
1.28532e-05
1.2831e-05
1.28042e-05
1.2774e-05
1.27598e-05
1.27094e-05
1.2691e-05
1.26406e-05
1.26202e-05
1.25788e-05
1.25746e-05
1.25086e-05
1.25101e-05
1.24586e-05
1.24863e-05
1.24658e-05
1.24773e-05
1.24895e-05
1.24885e-05
1.25199e-05
1.25299e-05
1.26239e-05
1.26871e-05
1.27962e-05
1.28974e-05
1.30356e-05
1.31905e-05
1.33585e-05
1.35253e-05
1.36836e-05
1.38497e-05
1.40003e-05
1.41377e-05
1.42793e-05
1.45993e-05
1.48955e-05
1.49194e-05
1.49425e-05
1.51841e-05
1.54675e-05
1.57744e-05
1.60999e-05
1.64292e-05
1.6746e-05
1.71134e-05
1.74316e-05
1.77482e-05
1.80375e-05
1.83709e-05
1.8636e-05
1.89303e-05
1.91724e-05
1.94397e-05
1.95675e-05
1.97604e-05
1.97367e-05
1.97124e-05
1.98356e-05
1.95359e-05
1.96593e-05
1.94627e-05
1.93101e-05
1.91858e-05
1.89776e-05
1.89336e-05
1.87683e-05
1.86848e-05
1.84874e-05
1.8428e-05
1.82739e-05
1.82299e-05
1.8132e-05
1.80391e-05
1.79249e-05
1.78271e-05
1.77431e-05
1.7669e-05
1.75814e-05
1.75057e-05
1.73797e-05
1.7267e-05
1.71455e-05
1.70317e-05
1.68898e-05
1.67548e-05
1.65826e-05
1.64139e-05
1.62175e-05
1.60133e-05
1.57887e-05
1.55729e-05
1.53608e-05
1.5108e-05
1.48158e-05
1.45086e-05
1.41837e-05
1.37501e-05
1.30896e-05
1.19046e-05
9.73331e-06
7.06839e-06
7.74206e-06
1.03939e-05
6.44097e-06
5.93865e-08
5.85238e-07
1.52146e-06
1.08038e-06
5.38042e-07
4.62164e-07
2.71882e-07
8.10956e-08
7.85442e-07
5.95223e-07
6.92822e-07
2.2161e-07
3.93115e-06
7.40894e-06
1.58595e-06
2.73379e-06
1.74889e-05
1.75888e-05
8.55211e-06
1.31586e-05
2.24033e-05
2.83411e-05
3.07762e-05
3.1755e-05
3.22525e-05
3.25158e-05
3.25458e-05
3.25714e-05
3.23716e-05
3.23689e-05
3.21486e-05
3.21542e-05
3.18657e-05
3.18306e-05
3.15419e-05
3.1489e-05
3.12239e-05
3.11993e-05
3.09025e-05
3.0897e-05
3.06155e-05
3.06209e-05
3.02916e-05
3.02792e-05
2.99732e-05
3.00016e-05
2.96722e-05
2.98089e-05
2.95501e-05
2.95926e-05
2.92384e-05
2.92756e-05
2.88761e-05
2.89227e-05
2.85528e-05
2.85839e-05
2.8188e-05
2.82254e-05
2.81358e-05
2.81429e-05
2.81227e-05
2.80523e-05
2.79324e-05
2.77469e-05
2.78189e-05
2.75186e-05
2.77279e-05
2.72718e-05
2.77605e-05
2.71337e-05
2.76572e-05
2.70604e-05
2.76692e-05
2.69581e-05
2.77254e-05
2.6237e-05
2.2832e-05
1.41714e-05
7.7706e-06
6.23971e-06
6.19936e-06
6.06208e-06
5.88583e-06
5.6173e-06
5.39079e-06
5.26343e-06
5.33717e-06
5.44795e-06
5.21851e-06
3.62496e-06
2.37558e-06
1.70622e-06
1.15528e-06
8.74256e-07
8.54919e-07
8.21506e-07
8.44905e-07
9.5419e-07
1.08539e-06
1.36099e-06
1.69367e-06
1.85172e-06
1.8015e-06
2.21707e-06
2.63726e-06
2.76045e-06
2.86336e-06
2.88421e-06
2.79729e-06
2.58254e-06
2.35077e-06
2.3316e-06
2.3883e-06
3.03558e-06
4.44149e-06
5.64305e-06
6.24247e-06
6.10868e-06
5.52747e-06
4.22252e-06
3.05197e-06
3.20973e-06
6.3652e-06
8.1492e-06
9.51389e-06
1.04014e-05
1.11663e-05
1.17383e-05
1.22406e-05
1.26357e-05
1.29638e-05
1.32286e-05
1.34641e-05
1.36708e-05
1.38492e-05
1.39836e-05
1.4101e-05
1.41774e-05
1.42397e-05
1.4272e-05
1.43041e-05
1.4293e-05
1.4279e-05
1.42071e-05
1.41376e-05
1.40108e-05
1.39205e-05
1.37873e-05
1.37088e-05
1.35543e-05
1.33481e-05
1.29078e-05
1.22608e-05
1.11953e-05
1.02099e-05
9.28966e-06
9.27215e-06
9.31451e-06
9.85669e-06
1.05958e-05
1.05674e-05
1.36412e-05
1.14398e-05
1.91895e-05
2.62662e-05
2.85103e-05
1.67857e-05
2.54539e-05
4.21529e-05
4.05875e-05
6.67571e-05
1.76288e-06
0.000161963
0.000485394
0.000232533
2.75671e-05
1.28673e-05
0.00016568
0.000104904
2.22317e-05
2.67222e-06
5.47525e-07
4.10748e-07
4.03245e-07
4.05252e-07
4.02877e-07
4.03201e-07
4.03369e-07
4.02469e-07
4.03546e-07
4.0066e-07
4.01208e-07
4.00126e-07
3.98997e-07
3.98385e-07
3.97651e-07
3.98958e-07
3.99896e-07
4.02669e-07
4.01159e-07
4.03456e-07
4.03187e-07
4.02656e-07
4.03718e-07
4.02342e-07
4.04373e-07
4.02353e-07
4.09104e-07
5.04107e-07
2.11946e-06
1.8122e-05
9.00157e-05
0.000140806
1.55762e-06
1.80944e-05
0.000168187
0.00041491
0.000125374
6.5323e-06
5.91964e-05
4.39718e-05
4.91713e-05
4.14696e-05
3.20947e-05
2.60047e-05
2.06507e-05
2.01796e-05
1.95117e-05
1.82363e-05
1.99506e-05
1.74412e-05
1.99172e-05
1.73404e-05
1.98536e-05
1.74751e-05
1.98513e-05
1.75976e-05
1.97595e-05
1.77356e-05
1.96862e-05
1.78585e-05
1.94424e-05
1.80763e-05
1.91126e-05
1.83156e-05
1.88511e-05
1.84213e-05
1.87323e-05
1.84062e-05
1.8626e-05
1.83798e-05
1.86385e-05
1.84229e-05
1.85832e-05
1.83696e-05
1.85219e-05
1.83527e-05
1.84754e-05
1.83032e-05
1.84417e-05
1.83095e-05
1.84013e-05
1.83197e-05
1.84018e-05
1.8325e-05
1.83988e-05
1.83363e-05
1.84064e-05
1.83536e-05
1.84384e-05
1.83811e-05
1.84721e-05
1.84166e-05
1.85057e-05
1.84793e-05
1.85599e-05
1.85577e-05
1.86125e-05
1.86235e-05
1.86798e-05
1.8727e-05
1.87841e-05
1.88238e-05
1.88753e-05
1.89137e-05
1.89619e-05
1.9013e-05
1.90658e-05
1.91129e-05
1.91591e-05
1.92068e-05
1.92549e-05
1.93004e-05
1.93447e-05
1.93777e-05
1.94237e-05
1.94365e-05
1.94368e-05
1.9466e-05
1.95428e-05
1.9591e-05
1.95669e-05
1.95597e-05
1.95767e-05
1.95825e-05
1.95817e-05
1.95651e-05
1.95406e-05
1.95111e-05
1.94692e-05
1.94273e-05
1.93603e-05
1.92949e-05
1.91929e-05
1.91037e-05
1.89642e-05
1.88369e-05
1.8652e-05
1.85008e-05
1.82747e-05
1.81225e-05
1.78807e-05
1.769e-05
1.74878e-05
1.72404e-05
1.70581e-05
1.68269e-05
1.66381e-05
1.64209e-05
1.6215e-05
1.59994e-05
1.5802e-05
1.5597e-05
1.53918e-05
1.51887e-05
1.49693e-05
1.47561e-05
1.45427e-05
1.43318e-05
1.41079e-05
1.38827e-05
1.36312e-05
1.33855e-05
1.31093e-05
1.28462e-05
1.25545e-05
1.2252e-05
1.19132e-05
1.15454e-05
1.11175e-05
1.06273e-05
1.00812e-05
9.53865e-06
9.00324e-06
8.46452e-06
7.73199e-06
6.67108e-06
5.4579e-06
4.72495e-06
4.59041e-06
4.3598e-06
3.35063e-06
1.87824e-06
7.44039e-07
5.06607e-07
6.74658e-07
8.64827e-07
1.03127e-06
2.49174e-07
7.79044e-07
4.13919e-07
4.20827e-07
2.79505e-07
3.72353e-07
4.18454e-07
5.78212e-07
5.50949e-08
4.73788e-07
4.92395e-07
4.25481e-07
1.94318e-07
2.26341e-07
9.3779e-08
4.38985e-07
1.60657e-06
1.04499e-06
1.37947e-06
9.98226e-07
3.52229e-06
7.20432e-06
8.60017e-06
8.40916e-06
9.00599e-06
1.12535e-05
1.36116e-05
1.51662e-05
1.60347e-05
1.72047e-05
1.84323e-05
1.97198e-05
2.06751e-05
2.15497e-05
2.21355e-05
2.26753e-05
2.30366e-05
2.34192e-05
2.36448e-05
2.39488e-05
2.41185e-05
2.4383e-05
2.45311e-05
2.47895e-05
2.48765e-05
2.50944e-05
2.51684e-05
2.54214e-05
2.55036e-05
2.57813e-05
2.5814e-05
2.60881e-05
2.60979e-05
2.63986e-05
2.63765e-05
2.66756e-05
2.66243e-05
2.69324e-05
2.68285e-05
2.71791e-05
2.70498e-05
2.74258e-05
2.73476e-05
2.7681e-05
2.76785e-05
2.78897e-05
2.80532e-05
2.80727e-05
2.83715e-05
2.8325e-05
2.85557e-05
2.88052e-05
2.84536e-05
2.92504e-05
2.93758e-05
2.85304e-05
2.44542e-05
2.90806e-05
3.63659e-05
3.96928e-05
3.96567e-05
3.82056e-05
3.66092e-05
3.48157e-05
3.31003e-05
3.11963e-05
2.93943e-05
2.7141e-05
2.30955e-05
1.52518e-05
6.68053e-06
4.08836e-06
3.73648e-06
3.63567e-06
3.53517e-06
3.51927e-06
3.68719e-06
4.09393e-06
4.51307e-06
5.36452e-06
6.36277e-06
7.35514e-06
8.41355e-06
1.04406e-05
1.22487e-05
1.18182e-05
1.13926e-05
8.86517e-06
6.72858e-06
6.14192e-06
6.63648e-06
7.99835e-06
9.69844e-06
1.16026e-05
1.39958e-05
1.60015e-05
1.65249e-05
1.58326e-05
1.51532e-05
1.43329e-05
1.35426e-05
1.33356e-05
1.22766e-05
1.31718e-05
1.35748e-05
1.38903e-05
1.40764e-05
1.42466e-05
1.44019e-05
1.46259e-05
1.48323e-05
1.51363e-05
1.54844e-05
1.59625e-05
1.64455e-05
1.69429e-05
1.74532e-05
1.80183e-05
1.85903e-05
1.92385e-05
1.99429e-05
2.07142e-05
2.15504e-05
2.24406e-05
2.34024e-05
2.44563e-05
2.56962e-05
2.71811e-05
2.89882e-05
3.10116e-05
3.30342e-05
3.49075e-05
3.65271e-05
3.81502e-05
3.96763e-05
4.12406e-05
4.25328e-05
4.4047e-05
4.62523e-05
4.91918e-05
5.00362e-05
5.08946e-05
5.11808e-05
6.21793e-05
6.33745e-05
6.99215e-05
4.35467e-05
2.73459e-05
3.96111e-05
3.85978e-05
6.9696e-05
7.05792e-06
0.000180496
0.000517568
0.000267225
3.26555e-05
2.02388e-05
0.000178344
0.00011241
2.43883e-05
2.98209e-06
5.67016e-07
4.08163e-07
4.03591e-07
4.04871e-07
4.04002e-07
4.02853e-07
4.04428e-07
4.02617e-07
4.03554e-07
4.00892e-07
4.0156e-07
3.99197e-07
3.99287e-07
3.98512e-07
3.99317e-07
3.9958e-07
3.99666e-07
4.02139e-07
4.0167e-07
4.03737e-07
4.02837e-07
4.0426e-07
4.03117e-07
4.03612e-07
4.04338e-07
4.03694e-07
4.06836e-07
4.88787e-07
1.8439e-06
1.59367e-05
8.15747e-05
0.000126664
4.27176e-07
1.37259e-05
0.000134983
0.000370918
0.000105595
1.77159e-06
5.3432e-05
4.33264e-05
4.88375e-05
4.61862e-05
4.16758e-05
3.74075e-05
3.45815e-05
3.27023e-05
3.16099e-05
3.16358e-05
3.05615e-05
3.09932e-05
3.03775e-05
3.04998e-05
3.02267e-05
3.02856e-05
2.99897e-05
3.01383e-05
2.98441e-05
2.99929e-05
2.97769e-05
2.97897e-05
2.97405e-05
2.96084e-05
2.96877e-05
2.94977e-05
2.95849e-05
2.94126e-05
2.94957e-05
2.92921e-05
2.93985e-05
2.92455e-05
2.94361e-05
2.92251e-05
2.93447e-05
2.91137e-05
2.92492e-05
2.90581e-05
2.91562e-05
2.89883e-05
2.91167e-05
2.89754e-05
2.90741e-05
2.89913e-05
2.90737e-05
2.89825e-05
2.90599e-05
2.89676e-05
2.90481e-05
2.8957e-05
2.90482e-05
2.89417e-05
2.90326e-05
2.89175e-05
2.89947e-05
2.89145e-05
2.89496e-05
2.88896e-05
2.88778e-05
2.88166e-05
2.88129e-05
2.87543e-05
2.87567e-05
2.86562e-05
2.8609e-05
2.85017e-05
2.84211e-05
2.83319e-05
2.82297e-05
2.81206e-05
2.79995e-05
2.78805e-05
2.77528e-05
2.76081e-05
2.74609e-05
2.72697e-05
2.7105e-05
2.68501e-05
2.6598e-05
2.63695e-05
2.6236e-05
2.60378e-05
2.56944e-05
2.53612e-05
2.50605e-05
2.47215e-05
2.43837e-05
2.40012e-05
2.36171e-05
2.32047e-05
2.28002e-05
2.23819e-05
2.19529e-05
2.15242e-05
2.10923e-05
2.06709e-05
2.02296e-05
1.97954e-05
1.93667e-05
1.89549e-05
1.85449e-05
1.8163e-05
1.77249e-05
1.73891e-05
1.69404e-05
1.65904e-05
1.61863e-05
1.58215e-05
1.54163e-05
1.50307e-05
1.46252e-05
1.42221e-05
1.38265e-05
1.34004e-05
1.2983e-05
1.25421e-05
1.21023e-05
1.1644e-05
1.1208e-05
1.07268e-05
1.0245e-05
9.71112e-06
9.13003e-06
8.51261e-06
7.8323e-06
7.15645e-06
6.46183e-06
5.74783e-06
5.01302e-06
4.35151e-06
3.78369e-06
3.15571e-06
2.35219e-06
1.70621e-06
1.51969e-06
1.51713e-06
1.15516e-06
7.61937e-07
6.39192e-07
5.95957e-07
4.05097e-07
3.25645e-07
2.64743e-07
3.23439e-07
4.10556e-07
4.78773e-07
4.87048e-07
5.66084e-07
5.11371e-07
4.63033e-07
1.95756e-07
2.30962e-07
1.92286e-07
3.25429e-07
4.60208e-07
5.1435e-07
4.77783e-07
5.29902e-07
5.5132e-07
3.90655e-07
6.9422e-07
7.13788e-07
8.2212e-07
8.7543e-07
7.05264e-07
7.35218e-07
8.70534e-07
8.45499e-07
4.70475e-07
6.03259e-07
1.36557e-06
1.53318e-06
7.07525e-07
7.10763e-07
1.57551e-06
2.12016e-06
2.39619e-06
2.68274e-06
3.17567e-06
4.22275e-06
5.50023e-06
6.76557e-06
8.00348e-06
9.24334e-06
1.04847e-05
1.17762e-05
1.30096e-05
1.40148e-05
1.49972e-05
1.58895e-05
1.68747e-05
1.77395e-05
1.86448e-05
1.92696e-05
2.00169e-05
2.05275e-05
2.13719e-05
2.1857e-05
2.27003e-05
2.30488e-05
2.38717e-05
2.41322e-05
2.50396e-05
2.52405e-05
2.61436e-05
2.62537e-05
2.72105e-05
2.72412e-05
2.82066e-05
2.81733e-05
2.90861e-05
2.91292e-05
2.99101e-05
3.01874e-05
3.06392e-05
3.1367e-05
3.13118e-05
3.24172e-05
3.21047e-05
3.30905e-05
3.33649e-05
3.33113e-05
3.43226e-05
3.47566e-05
3.47334e-05
3.06174e-05
3.71328e-05
5.07834e-05
6.06304e-05
6.6049e-05
6.81237e-05
6.89982e-05
6.83022e-05
6.71751e-05
6.48618e-05
6.26847e-05
5.90829e-05
5.23724e-05
4.06435e-05
2.29893e-05
1.09083e-05
8.61879e-06
8.17434e-06
7.74793e-06
7.67579e-06
8.06788e-06
8.85571e-06
9.58008e-06
1.12176e-05
1.3179e-05
1.50523e-05
1.68495e-05
2.08474e-05
2.46451e-05
2.3874e-05
2.41598e-05
1.92887e-05
1.37892e-05
1.03292e-05
1.12999e-05
1.35902e-05
1.70312e-05
2.28653e-05
2.99091e-05
3.54773e-05
3.7424e-05
3.57938e-05
3.39501e-05
3.15164e-05
3.05731e-05
2.50682e-05
2.41491e-05
2.6738e-05
2.81731e-05
2.92291e-05
3.01153e-05
3.08449e-05
3.1625e-05
3.24356e-05
3.3261e-05
3.41296e-05
3.50167e-05
3.59199e-05
3.68358e-05
3.77593e-05
3.87047e-05
3.9648e-05
4.06376e-05
4.16804e-05
4.28256e-05
4.40337e-05
4.53544e-05
4.67327e-05
4.82498e-05
4.9904e-05
5.18755e-05
5.42119e-05
5.70175e-05
6.00351e-05
6.29357e-05
6.53873e-05
6.73622e-05
6.89996e-05
7.03622e-05
7.15988e-05
7.2723e-05
7.49141e-05
7.95944e-05
8.3639e-05
8.63967e-05
8.99991e-05
9.16715e-05
9.57488e-05
9.24385e-05
9.20802e-05
7.62294e-05
3.48372e-05
3.91114e-05
3.66019e-05
7.14609e-05
4.96536e-07
0.000197931
0.000546363
0.000303065
3.88499e-05
2.79647e-05
0.000190539
0.000119755
2.66075e-05
3.30698e-06
5.99195e-07
4.1174e-07
4.03841e-07
4.05128e-07
4.02484e-07
4.02738e-07
4.02803e-07
4.02272e-07
4.03308e-07
4.00857e-07
4.02159e-07
3.99858e-07
3.98884e-07
3.98452e-07
3.98476e-07
3.98886e-07
3.99856e-07
4.01613e-07
4.01992e-07
4.03592e-07
4.02743e-07
4.02339e-07
4.03879e-07
4.01915e-07
4.03998e-07
4.01871e-07
4.05231e-07
4.69343e-07
1.60822e-06
1.39579e-05
7.37204e-05
0.00011367
6.18195e-07
1.0282e-05
0.000106082
0.000327543
8.81353e-05
3.14196e-06
4.78767e-05
4.29723e-05
4.84068e-05
4.70298e-05
4.51192e-05
4.34138e-05
4.08554e-05
4.01205e-05
3.94966e-05
3.86522e-05
3.87787e-05
3.80201e-05
3.82537e-05
3.77204e-05
3.79003e-05
3.75156e-05
3.762e-05
3.73638e-05
3.7408e-05
3.72372e-05
3.72463e-05
3.70926e-05
3.71208e-05
3.69505e-05
3.70142e-05
3.6829e-05
3.68957e-05
3.67246e-05
3.6784e-05
3.66113e-05
3.66813e-05
3.65436e-05
3.66618e-05
3.64812e-05
3.65595e-05
3.63581e-05
3.64394e-05
3.62707e-05
3.63265e-05
3.61836e-05
3.62562e-05
3.61337e-05
3.61942e-05
3.61059e-05
3.61509e-05
3.60525e-05
3.60888e-05
3.59783e-05
3.60217e-05
3.58961e-05
3.59443e-05
3.58009e-05
3.58388e-05
3.56792e-05
3.56954e-05
3.5559e-05
3.5519e-05
3.53953e-05
3.52984e-05
3.51658e-05
3.50745e-05
3.49044e-05
3.48225e-05
3.45935e-05
3.44446e-05
3.42041e-05
3.40005e-05
3.37673e-05
3.35191e-05
3.32605e-05
3.29811e-05
3.26971e-05
3.23928e-05
3.20652e-05
3.17299e-05
3.13273e-05
3.0962e-05
3.04761e-05
3.00268e-05
2.95551e-05
2.91552e-05
2.87061e-05
2.81339e-05
2.75474e-05
2.69767e-05
2.63521e-05
2.57404e-05
2.50643e-05
2.44091e-05
2.37035e-05
2.30269e-05
2.23306e-05
2.1652e-05
2.09633e-05
2.03093e-05
1.96613e-05
1.90258e-05
1.83765e-05
1.7791e-05
1.71832e-05
1.66421e-05
1.60814e-05
1.55194e-05
1.5011e-05
1.44257e-05
1.39226e-05
1.33442e-05
1.28557e-05
1.22532e-05
1.17428e-05
1.11368e-05
1.05793e-05
9.97713e-06
9.35488e-06
8.69336e-06
8.00607e-06
7.27857e-06
6.53618e-06
5.8238e-06
5.08317e-06
4.39449e-06
3.70615e-06
3.07403e-06
2.51941e-06
1.95553e-06
1.47549e-06
1.16788e-06
1.01916e-06
8.27119e-07
6.43126e-07
5.77333e-07
5.34978e-07
3.60896e-07
3.54489e-07
4.89443e-07
5.58236e-07
4.62949e-07
5.01532e-07
3.98968e-07
3.26821e-07
3.21639e-07
3.55552e-07
3.15905e-07
4.57476e-07
5.288e-07
6.14763e-07
5.762e-07
4.78203e-07
3.34977e-07
3.09382e-07
3.1818e-07
3.14632e-07
4.01954e-07
3.31211e-07
5.19565e-07
6.71774e-07
5.09139e-07
1.58298e-07
3.28588e-07
6.14573e-07
6.97436e-07
6.04315e-07
4.5736e-07
4.32491e-07
3.53775e-07
3.16454e-07
3.62521e-07
5.13843e-07
3.66192e-07
3.90866e-07
5.94206e-07
5.97875e-07
3.31699e-07
4.45441e-07
5.48918e-07
4.99706e-07
4.86945e-07
4.91651e-07
4.74733e-07
5.35205e-07
7.17282e-07
8.33142e-07
1.09977e-06
1.37051e-06
1.85935e-06
2.34487e-06
3.11087e-06
3.71867e-06
4.38379e-06
4.93031e-06
5.99027e-06
7.10669e-06
8.51518e-06
9.42783e-06
1.07166e-05
1.16962e-05
1.3356e-05
1.43835e-05
1.59793e-05
1.66839e-05
1.81118e-05
1.8581e-05
2.00816e-05
2.0463e-05
2.19316e-05
2.21702e-05
2.36951e-05
2.38923e-05
2.53966e-05
2.55374e-05
2.68826e-05
2.71146e-05
2.82113e-05
2.88076e-05
2.9397e-05
3.06373e-05
3.05124e-05
3.23151e-05
3.17852e-05
3.34707e-05
3.35327e-05
3.43481e-05
3.4658e-05
3.60138e-05
3.69334e-05
3.39011e-05
4.17742e-05
5.89953e-05
7.39506e-05
8.41987e-05
8.98442e-05
9.34971e-05
9.47678e-05
9.51033e-05
9.3493e-05
9.17815e-05
8.79572e-05
7.97092e-05
6.55599e-05
4.43991e-05
2.2319e-05
1.41564e-05
1.29601e-05
1.24137e-05
1.25405e-05
1.32255e-05
1.42378e-05
1.4959e-05
1.70989e-05
1.97848e-05
2.23202e-05
2.45312e-05
3.02728e-05
3.57844e-05
3.47444e-05
3.58232e-05
3.00552e-05
2.13707e-05
1.52236e-05
1.48117e-05
1.69778e-05
2.38697e-05
3.56342e-05
4.79794e-05
5.61226e-05
5.92733e-05
5.81549e-05
5.62879e-05
5.26948e-05
4.705e-05
3.79704e-05
4.02643e-05
4.47631e-05
4.7429e-05
4.962e-05
5.08755e-05
5.2011e-05
5.29873e-05
5.39673e-05
5.49267e-05
5.59843e-05
5.70361e-05
5.80505e-05
5.91223e-05
6.01901e-05
6.12883e-05
6.23919e-05
6.35664e-05
6.48037e-05
6.61782e-05
6.76235e-05
6.92215e-05
7.08782e-05
7.2712e-05
7.46879e-05
7.70147e-05
7.96974e-05
8.2829e-05
8.60661e-05
8.9086e-05
9.14596e-05
9.30347e-05
9.38539e-05
9.40563e-05
9.39989e-05
9.37017e-05
9.53223e-05
9.98785e-05
0.000102095
0.000101641
0.000102097
0.00010284
0.000105335
0.000104587
0.000102179
9.78519e-05
4.36179e-05
3.94139e-05
3.50931e-05
7.19268e-05
4.86363e-06
0.000212742
0.000569291
0.000335156
4.51811e-05
3.5272e-05
0.000201145
0.000126105
2.85902e-05
3.61527e-06
6.22803e-07
4.12659e-07
4.05193e-07
4.05867e-07
4.04149e-07
4.02877e-07
4.04239e-07
4.0309e-07
4.03251e-07
4.00794e-07
4.02059e-07
3.99066e-07
3.9969e-07
3.9865e-07
3.98991e-07
3.99518e-07
3.99368e-07
4.01232e-07
4.02025e-07
4.03593e-07
4.0428e-07
4.03945e-07
4.03417e-07
4.03343e-07
4.04112e-07
4.03662e-07
4.06208e-07
4.58839e-07
1.38503e-06
1.2009e-05
6.55896e-05
0.000100193
8.4979e-07
7.23582e-06
7.92547e-05
0.000280464
7.10822e-05
8.75296e-07
4.19152e-05
4.13537e-05
4.81304e-05
4.86153e-05
4.76293e-05
4.68819e-05
4.58594e-05
4.51943e-05
4.45914e-05
4.42202e-05
4.38977e-05
4.36547e-05
4.3488e-05
4.33078e-05
4.32204e-05
4.30676e-05
4.30166e-05
4.28869e-05
4.2855e-05
4.27388e-05
4.27189e-05
4.2597e-05
4.25972e-05
4.24635e-05
4.24847e-05
4.23406e-05
4.237e-05
4.22293e-05
4.22539e-05
4.21174e-05
4.21472e-05
4.20314e-05
4.20816e-05
4.19383e-05
4.19667e-05
4.17999e-05
4.18273e-05
4.16855e-05
4.16867e-05
4.15707e-05
4.1576e-05
4.14685e-05
4.1473e-05
4.13744e-05
4.13664e-05
4.12522e-05
4.12319e-05
4.10971e-05
4.10805e-05
4.09177e-05
4.08988e-05
4.07159e-05
4.06737e-05
4.04681e-05
4.03963e-05
4.01982e-05
4.0064e-05
3.98639e-05
3.96662e-05
3.94505e-05
3.92494e-05
3.896e-05
3.87698e-05
3.84054e-05
3.81423e-05
3.77585e-05
3.74154e-05
3.70232e-05
3.66131e-05
3.61908e-05
3.5734e-05
3.52671e-05
3.47655e-05
3.42391e-05
3.36966e-05
3.30706e-05
3.24933e-05
3.17741e-05
3.11249e-05
3.03803e-05
2.96875e-05
2.89931e-05
2.82147e-05
2.73858e-05
2.65576e-05
2.5663e-05
2.48016e-05
2.38613e-05
2.29772e-05
2.20168e-05
2.11152e-05
2.0188e-05
1.93145e-05
1.84078e-05
1.75869e-05
1.67495e-05
1.59648e-05
1.51195e-05
1.44111e-05
1.36078e-05
1.29596e-05
1.22161e-05
1.15526e-05
1.0857e-05
1.01599e-05
9.45401e-06
8.69779e-06
8.0196e-06
7.17494e-06
6.47525e-06
5.63204e-06
4.9275e-06
4.16719e-06
3.50148e-06
2.84246e-06
2.33389e-06
1.81456e-06
1.43377e-06
1.11019e-06
9.20733e-07
7.22326e-07
6.03942e-07
5.01309e-07
5.36626e-07
3.91084e-07
4.12574e-07
3.84297e-07
4.82903e-07
4.51327e-07
4.44727e-07
3.46826e-07
3.62703e-07
3.38962e-07
4.26484e-07
4.02415e-07
4.75613e-07
4.3239e-07
4.65317e-07
3.50878e-07
3.47458e-07
2.99673e-07
3.9338e-07
4.47341e-07
5.17726e-07
4.99214e-07
4.81744e-07
4.24678e-07
3.91552e-07
3.75565e-07
3.05594e-07
3.56477e-07
3.60373e-07
5.65876e-07
5.07011e-07
4.30058e-07
3.82541e-07
1.92751e-07
3.15842e-07
7.80953e-07
9.01403e-07
7.3883e-07
2.996e-07
4.02696e-07
2.76347e-07
3.27462e-07
2.35308e-07
2.76355e-07
2.30604e-07
2.42202e-07
1.73767e-07
4.03694e-07
2.57231e-07
3.84457e-07
2.78972e-07
4.88089e-07
3.58357e-07
5.3916e-07
4.23701e-07
6.18187e-07
4.34929e-07
6.85303e-07
4.3138e-07
7.00412e-07
4.53651e-07
7.49644e-07
5.86153e-07
8.89361e-07
7.02778e-07
1.08597e-06
7.29282e-07
1.19725e-06
1.12653e-06
1.86927e-06
1.74934e-06
2.60354e-06
2.63655e-06
4.05195e-06
4.6475e-06
6.49513e-06
7.04217e-06
8.92104e-06
9.53379e-06
1.17257e-05
1.23915e-05
1.44846e-05
1.49755e-05
1.70467e-05
1.75193e-05
1.94734e-05
1.99006e-05
2.15788e-05
2.20921e-05
2.34355e-05
2.43953e-05
2.5124e-05
2.68413e-05
2.67241e-05
2.91186e-05
2.84507e-05
3.08484e-05
3.05614e-05
3.24593e-05
3.2068e-05
3.38971e-05
3.60602e-05
3.48711e-05
4.33915e-05
6.34359e-05
8.26127e-05
9.77285e-05
0.000107444
0.000114415
0.000118303
0.00012072
0.00012056
0.000119966
0.000116789
0.000107781
9.18252e-05
6.81463e-05
4.0232e-05
2.2604e-05
1.88276e-05
1.77786e-05
1.80007e-05
1.89578e-05
2.03739e-05
2.15682e-05
2.39134e-05
2.69105e-05
2.98822e-05
3.23012e-05
3.96072e-05
4.65488e-05
4.53782e-05
4.7068e-05
4.13169e-05
3.00335e-05
2.10672e-05
1.8529e-05
2.07476e-05
3.26779e-05
5.09783e-05
6.91174e-05
7.93804e-05
8.36801e-05
8.33797e-05
8.15906e-05
7.62741e-05
6.53887e-05
5.53071e-05
6.07399e-05
6.79734e-05
7.22236e-05
7.51463e-05
7.6753e-05
7.79914e-05
7.89609e-05
7.98806e-05
8.07987e-05
8.19845e-05
8.30769e-05
8.41049e-05
8.52312e-05
8.63668e-05
8.75379e-05
8.87421e-05
9.00352e-05
9.13965e-05
9.29261e-05
9.45157e-05
9.62817e-05
9.80799e-05
0.000100061
0.000102127
0.000104509
0.000107129
0.00011012
0.000113099
0.000115798
0.000117716
0.000118567
0.000118293
0.000116746
0.000114521
0.000111649
0.000110651
0.000110412
0.000109042
0.000103962
0.000102379
0.000102032
0.000104749
0.000107334
0.000107497
0.000110532
5.15953e-05
3.88577e-05
3.45018e-05
7.1123e-05
1.48154e-06
0.000226147
0.000589906
0.000367854
5.21822e-05
4.28115e-05
0.000211429
0.000132297
3.05808e-05
3.93027e-06
6.53562e-07
4.1348e-07
4.04074e-07
4.06264e-07
4.02578e-07
4.02873e-07
4.02646e-07
4.02924e-07
4.03615e-07
4.01179e-07
4.01962e-07
3.99923e-07
3.99359e-07
3.98641e-07
3.98483e-07
3.99057e-07
3.99555e-07
4.01087e-07
4.02484e-07
4.03947e-07
4.01816e-07
4.02022e-07
4.03279e-07
4.0166e-07
4.03659e-07
4.00807e-07
4.01526e-07
4.41382e-07
1.18082e-06
1.00684e-05
5.7206e-05
8.63227e-05
2.90088e-07
4.47441e-06
5.54504e-05
0.000229532
5.48026e-05
2.34738e-06
3.54549e-05
3.83022e-05
4.53396e-05
4.75403e-05
4.83359e-05
4.81176e-05
4.80059e-05
4.77054e-05
4.74802e-05
4.72908e-05
4.71107e-05
4.69874e-05
4.68634e-05
4.67768e-05
4.66935e-05
4.66219e-05
4.65664e-05
4.64986e-05
4.64651e-05
4.63932e-05
4.63739e-05
4.62922e-05
4.6282e-05
4.61915e-05
4.6191e-05
4.60926e-05
4.60958e-05
4.59943e-05
4.59922e-05
4.58916e-05
4.58882e-05
4.57938e-05
4.57945e-05
4.56835e-05
4.5671e-05
4.55347e-05
4.55181e-05
4.53988e-05
4.53488e-05
4.52516e-05
4.5192e-05
4.50906e-05
4.5034e-05
4.49183e-05
4.48536e-05
4.47141e-05
4.46322e-05
4.44665e-05
4.43799e-05
4.41765e-05
4.4079e-05
4.38544e-05
4.37167e-05
4.3465e-05
4.32889e-05
4.30281e-05
4.27882e-05
4.25044e-05
4.21986e-05
4.18912e-05
4.15659e-05
4.11568e-05
4.08434e-05
4.03398e-05
3.99544e-05
3.94206e-05
3.89244e-05
3.8365e-05
3.7781e-05
3.71854e-05
3.65373e-05
3.58757e-05
3.51651e-05
3.44311e-05
3.36716e-05
3.28195e-05
3.20268e-05
3.10767e-05
3.02259e-05
2.91908e-05
2.8211e-05
2.72944e-05
2.63313e-05
2.5279e-05
2.42199e-05
2.30824e-05
2.20078e-05
2.08433e-05
1.97775e-05
1.86038e-05
1.75246e-05
1.64094e-05
1.53856e-05
1.42941e-05
1.33521e-05
1.23495e-05
1.14433e-05
1.04004e-05
9.56166e-06
8.52309e-06
7.73168e-06
6.75112e-06
5.96806e-06
5.06188e-06
4.34224e-06
3.5688e-06
2.92025e-06
2.38223e-06
1.82941e-06
1.51382e-06
1.1352e-06
9.47214e-07
7.47363e-07
6.34697e-07
5.21199e-07
5.32145e-07
4.45559e-07
4.75192e-07
4.22457e-07
4.51684e-07
4.33415e-07
4.39674e-07
4.40601e-07
4.74009e-07
3.76528e-07
4.28681e-07
3.70659e-07
4.75348e-07
4.58705e-07
4.23633e-07
3.95756e-07
3.82919e-07
4.17812e-07
4.56599e-07
4.91284e-07
4.95904e-07
4.64688e-07
4.00011e-07
3.48864e-07
3.14255e-07
3.57825e-07
3.47062e-07
4.32011e-07
4.47286e-07
5.32048e-07
4.46054e-07
4.62225e-07
2.7894e-07
3.05092e-07
2.077e-07
3.65423e-07
3.36771e-07
5.24828e-07
5.9453e-07
4.58658e-07
4.99409e-07
5.15546e-07
3.40447e-07
5.89746e-07
6.4218e-07
1.06842e-07
8.42069e-08
3.04077e-07
9.69044e-08
2.42654e-07
1.71317e-07
2.88671e-07
2.11061e-07
3.25941e-07
2.18854e-07
4.30374e-07
2.54141e-07
4.75095e-07
2.82872e-07
5.47316e-07
3.21336e-07
6.09536e-07
3.6665e-07
6.9221e-07
3.54049e-07
7.79394e-07
3.13437e-07
8.82385e-07
2.66782e-07
1.00618e-06
2.57543e-07
1.09025e-06
3.26265e-07
1.10527e-06
2.99992e-07
1.11829e-06
1.58117e-07
1.20595e-06
1.9949e-07
1.1832e-06
2.05162e-07
1.48085e-06
4.32723e-07
1.77141e-06
1.0298e-06
2.46439e-06
1.57945e-06
3.36098e-06
3.2314e-06
5.28699e-06
5.35436e-06
7.54779e-06
8.18836e-06
1.05365e-05
1.13967e-05
1.34046e-05
1.43899e-05
1.59972e-05
1.74274e-05
1.83151e-05
2.04993e-05
2.04679e-05
2.33856e-05
2.26495e-05
2.57304e-05
2.51475e-05
2.79119e-05
2.73954e-05
2.89939e-05
3.22646e-05
3.38803e-05
4.29311e-05
6.4648e-05
8.71182e-05
0.000106856
0.000120919
0.000131623
0.00013862
0.000143602
0.000145434
0.000146431
0.000144567
0.00013555
0.000118523
9.32391e-05
6.2133e-05
3.56327e-05
2.64974e-05
2.41847e-05
2.43489e-05
2.54841e-05
2.71145e-05
2.85316e-05
3.14883e-05
3.50194e-05
3.78351e-05
4.00385e-05
4.85367e-05
5.65402e-05
5.5455e-05
5.82447e-05
5.27912e-05
3.92349e-05
2.71472e-05
2.20961e-05
2.51283e-05
4.36586e-05
6.86813e-05
9.20361e-05
0.000104164
0.0001098
0.000110434
0.00010844
0.000101035
8.42703e-05
7.60766e-05
8.56909e-05
9.62964e-05
0.00010033
0.000103523
0.000105337
0.000106777
0.000107932
0.000109084
0.000110392
0.000111815
0.000113038
0.000114214
0.000115475
0.000116737
0.000118049
0.000119399
0.000120853
0.00012234
0.000124005
0.000125675
0.000127525
0.000129335
0.00013133
0.00013328
0.000135458
0.000137622
0.000139974
0.000142126
0.000143994
0.000145023
0.000144755
0.000142953
0.000139442
0.000134748
0.000128836
0.000123595
0.000118463
0.00011345
0.000104643
9.9356e-05
9.63426e-05
9.85653e-05
0.000104038
0.000108737
0.000114379
5.91562e-05
3.99672e-05
3.67065e-05
6.79871e-05
6.55058e-06
0.000238081
0.000607291
0.00039995
5.93346e-05
5.04964e-05
0.000221308
0.000138211
3.2579e-05
4.26126e-06
6.8395e-07
4.16414e-07
4.05679e-07
4.0675e-07
4.04203e-07
4.02961e-07
4.04198e-07
4.0351e-07
4.03785e-07
4.00986e-07
4.02068e-07
3.99551e-07
3.99768e-07
3.98844e-07
3.98838e-07
3.99375e-07
3.99163e-07
4.01025e-07
4.02156e-07
4.03873e-07
4.04753e-07
4.0377e-07
4.03219e-07
4.02938e-07
4.04907e-07
4.04821e-07
4.05974e-07
4.33773e-07
9.92001e-07
8.20683e-06
4.8652e-05
7.21587e-05
5.06746e-07
3.20674e-06
3.53484e-05
0.00017538
3.92148e-05
2.77252e-06
2.8824e-05
3.49206e-05
4.26148e-05
4.53054e-05
4.72315e-05
4.77115e-05
4.81578e-05
4.82796e-05
4.83606e-05
4.84102e-05
4.83927e-05
4.84209e-05
4.83851e-05
4.84018e-05
4.83692e-05
4.83782e-05
4.83513e-05
4.83532e-05
4.83342e-05
4.83238e-05
4.83112e-05
4.82856e-05
4.82734e-05
4.82361e-05
4.82258e-05
4.81781e-05
4.81657e-05
4.81072e-05
4.80869e-05
4.80217e-05
4.79951e-05
4.79227e-05
4.78897e-05
4.78062e-05
4.77626e-05
4.76527e-05
4.76012e-05
4.74993e-05
4.74038e-05
4.73178e-05
4.71985e-05
4.7095e-05
4.69782e-05
4.68401e-05
4.67185e-05
4.65458e-05
4.64024e-05
4.61985e-05
4.60398e-05
4.57915e-05
4.56118e-05
4.53413e-05
4.51001e-05
4.48025e-05
4.45124e-05
4.41893e-05
4.38357e-05
4.34657e-05
4.30469e-05
4.26413e-05
4.21814e-05
4.1657e-05
4.12095e-05
4.05645e-05
4.00498e-05
3.93616e-05
3.87019e-05
3.79712e-05
3.72048e-05
3.64314e-05
3.55833e-05
3.47228e-05
3.37989e-05
3.2856e-05
3.18776e-05
3.08041e-05
2.97998e-05
2.86273e-05
2.75792e-05
2.62566e-05
2.50212e-05
2.39135e-05
2.2789e-05
2.15443e-05
2.02915e-05
1.89482e-05
1.77027e-05
1.63533e-05
1.51476e-05
1.37959e-05
1.25688e-05
1.127e-05
1.00791e-05
8.75084e-06
7.6486e-06
6.42064e-06
5.43857e-06
4.27846e-06
3.57918e-06
2.63158e-06
2.24776e-06
1.55219e-06
1.41805e-06
8.63282e-07
9.17642e-07
5.8746e-07
6.64097e-07
4.06758e-07
5.74438e-07
3.96593e-07
5.0204e-07
3.77969e-07
5.40665e-07
3.28522e-07
5.48967e-07
3.40442e-07
5.11687e-07
3.58943e-07
5.10831e-07
3.33783e-07
5.22563e-07
3.25766e-07
5.47037e-07
3.48365e-07
4.8564e-07
3.41316e-07
5.30179e-07
4.3469e-07
5.47835e-07
3.33865e-07
4.69336e-07
3.17497e-07
4.97369e-07
3.78959e-07
5.6169e-07
4.31263e-07
5.32054e-07
3.47057e-07
4.31394e-07
3.13981e-07
4.85931e-07
4.32672e-07
6.22506e-07
5.10639e-07
5.81954e-07
3.94509e-07
4.20155e-07
2.66568e-07
3.56963e-07
2.89309e-07
3.83777e-07
4.11606e-07
4.45008e-07
5.45766e-07
4.4195e-07
3.57962e-07
2.20912e-07
4.19384e-07
7.69998e-07
5.9661e-07
3.21074e-07
2.24703e-07
3.79281e-07
8.63048e-08
3.98149e-07
1.09489e-07
3.74373e-07
1.06328e-07
3.88898e-07
1.13076e-07
4.50996e-07
1.46843e-07
5.39318e-07
1.99138e-07
6.22949e-07
2.41163e-07
6.79346e-07
2.89491e-07
7.02326e-07
2.76536e-07
6.59098e-07
2.08375e-07
6.34961e-07
1.46253e-07
6.54546e-07
1.09857e-07
6.89207e-07
1.48671e-07
7.88639e-07
2.81707e-07
9.44812e-07
3.99833e-07
1.04776e-06
4.54509e-07
1.01178e-06
3.32155e-07
1.07093e-06
1.89174e-07
1.12622e-06
4.03513e-07
1.51725e-06
1.92229e-07
1.64032e-06
5.60645e-07
1.75664e-06
8.57535e-07
2.07073e-06
1.67932e-06
2.97603e-06
3.19009e-06
4.52356e-06
5.19557e-06
6.48515e-06
8.12348e-06
9.11998e-06
1.18021e-05