/*--------------------------------*- C++ -*----------------------------------*\
| =========                 |                                                 |
| \\      /  F ield         | OpenFOAM: The Open Source CFD Toolbox           |
|  \\    /   O peration     | Version:  v2006                                 |
|   \\  /    A nd           | Website:  www.openfoam.com                      |
|    \\/     M anipulation  |                                                 |
\*---------------------------------------------------------------------------*/
FoamFile
{
    version     2.0;
    format      ascii;
    class       volScalarField;
    location    "220";
    object      p;
}
// * * * * * * * * * * * * * * * * * * * * * * * * * * * * * * * * * * * * * //

dimensions      [1 -1 -2 0 0 0 0];


internalField   nonuniform List<scalar> 
93840
(
1.02603
1.04542
1.06528
1.11527
1.0725
1.11262
1.03227
1.03834
0.9989
0.983974
0.966277
0.955522
0.953561
0.955171
0.958133
0.961442
0.942366
0.932396
0.973937
0.956484
0.870767
0.811713
0.863293
0.86177
0.822819
0.849453
0.849172
0.820523
0.817023
0.834832
0.817681
0.871333
0.827824
0.850158
0.86338
0.878972
0.883862
0.897447
0.900131
0.913693
0.914302
0.925373
0.925833
0.93425
0.935961
0.943986
0.946358
0.952296
0.954658
0.960619
0.962933
0.967216
0.970134
0.975591
0.978081
0.979256
0.98188
0.984695
0.988768
0.991836
0.992828
0.995422
0.998199
0.999268
1.00082
1.00135
1.00315
1.00333
1.00427
1.00508
1.0052
1.00559
1.00607
1.00569
1.00545
1.00553
1.00477
1.00438
1.00289
1.00224
1.00097
1.00009
0.998466
0.996806
0.994509
0.99263
0.990306
0.987969
0.985773
0.98307
0.979806
0.975991
0.97239
0.968243
0.963965
0.959159
0.954229
0.949072
0.943534
0.937393
0.930946
0.924473
0.917717
0.906026
0.894479
0.890721
0.887399
0.878461
0.86858
0.858325
0.848323
0.838103
0.82823
0.815833
0.804021
0.791119
0.778525
0.767629
0.760453
0.755502
0.753559
0.750641
0.755437
0.756435
0.766334
0.775428
0.783158
0.800413
0.804826
0.816404
0.827908
0.839911
0.848831
0.858473
0.867981
0.874274
0.886379
0.89329
0.9019
0.909176
0.91557
0.922845
0.931213
0.937945
0.945002
0.950252
0.957584
0.96355
0.970561
0.978162
0.985143
0.993066
1.00016
1.00782
1.01586
1.02352
1.03207
1.04043
1.0505
1.05946
1.06798
1.076
1.08566
1.09576
1.10674
1.11793
1.13093
1.14336
1.15573
1.16864
1.18483
1.20175
1.21825
1.23511
1.25503
1.2769
1.30034
1.32721
1.35301
1.37866
1.39515
1.4078
1.37822
1.29722
1.16853
1.02732
0.882271
0.790121
0.748178
0.75228
0.678726
0.624727
0.572374
0.550479
0.535441
0.518222
0.515685
0.505589
0.508098
0.499269
0.501658
0.503266
0.502769
0.503937
0.503889
0.507036
0.506773
0.507664
0.507927
0.508056
0.508517
0.507781
0.506615
0.505081
0.503753
0.502916
0.503632
0.503514
0.501565
0.496782
0.498653
0.491141
0.491266
0.490912
0.490894
0.491198
0.491664
0.490501
0.489865
0.489777
0.487809
0.484388
0.4794
0.473776
0.472964
0.468317
0.466957
0.467359
0.463818
0.46224
0.460033
0.456396
0.455001
0.449513
0.448284
0.443915
0.443135
0.436408
0.437829
0.435623
0.42434
0.421163
0.417331
0.425776
0.472033
0.588963
0.68457
0.697312
0.716238
0.727603
0.740044
0.747458
0.754553
0.757459
0.760602
0.761714
0.763404
0.763921
0.765513
0.766211
0.768555
0.770001
0.773623
0.775623
0.779299
0.780869
0.784644
0.786468
0.789535
0.790636
0.792895
0.792974
0.793774
0.792722
0.793376
0.792804
0.793999
0.79383
0.795446
0.795865
0.797927
0.798808
0.801198
0.802325
0.804612
0.805498
0.807242
0.807865
0.809446
0.809866
0.811233
0.81148
0.812408
0.812366
0.813253
0.812962
0.813432
0.812783
0.812633
0.81173
0.811749
0.81127
0.811732
0.811695
0.812524
0.812676
0.813484
0.813501
0.814377
0.814548
0.815792
0.81601
0.817381
0.817697
0.81919
0.819238
0.821215
0.821252
0.82339
0.822965
0.825355
0.822966
0.826753
0.817226
0.825944
0.817846
0.802183
0.808206
0.82353
0.80229
0.812484
0.865746
0.852985
0.830851
0.86459
0.864045
0.802265
0.869812
0.95751
0.976566
0.933105
0.942696
0.961494
0.958101
0.954717
0.953597
0.95558
0.966348
0.984032
0.999064
1.03847
1.03256
1.11273
1.07265
1.11497
1.06484
1.04473
1.02611
1.02607
1.04481
1.06488
1.11496
1.07274
1.11247
1.03275
1.03816
0.999094
0.9839
0.966171
0.955616
0.953502
0.954909
0.958318
0.961266
0.941826
0.931033
0.969947
0.954779
0.872622
0.818049
0.861384
0.857918
0.833975
0.850131
0.844923
0.824669
0.820949
0.830841
0.822785
0.829959
0.840397
0.854461
0.865464
0.877692
0.884483
0.895958
0.900017
0.911639
0.913595
0.924027
0.925148
0.933339
0.935418
0.942916
0.945493
0.951411
0.954027
0.959725
0.962254
0.966662
0.969502
0.974242
0.976916
0.978839
0.981611
0.984397
0.987885
0.991137
0.992103
0.995208
0.997224
0.998867
1.00026
1.00079
1.00276
1.00297
1.00395
1.00453
1.00498
1.00519
1.00573
1.00545
1.00522
1.00526
1.00455
1.00412
1.00271
1.00205
1.0008
0.9999
0.998274
0.996646
0.994373
0.992493
0.990186
0.987849
0.985634
0.982921
0.979687
0.975901
0.972304
0.968162
0.963891
0.959104
0.954184
0.94903
0.943498
0.93738
0.930955
0.924443
0.917634
0.906134
0.89483
0.8909
0.887341
0.878478
0.868735
0.858526
0.84856
0.838363
0.828494
0.81619
0.804478
0.791627
0.77905
0.768245
0.761139
0.756259
0.754294
0.75153
0.756333
0.757444
0.767227
0.776296
0.783976
0.801013
0.805569
0.81728
0.828508
0.840497
0.849398
0.859071
0.868686
0.874813
0.887003
0.893797
0.902326
0.909965
0.916142
0.923612
0.931825
0.938614
0.945594
0.951131
0.958267
0.964455
0.971439
0.979026
0.986013
0.994122
1.00122
1.00893
1.01715
1.02469
1.03345
1.04168
1.05195
1.06075
1.06971
1.07805
1.08803
1.09823
1.10958
1.12085
1.13402
1.14687
1.16022
1.1732
1.18898
1.20636
1.22432
1.24174
1.26091
1.28283
1.30352
1.32626
1.3483
1.3711
1.38006
1.38923
1.36639
1.31439
1.22657
1.11797
0.995109
0.891357
0.824265
0.801895
0.723713
0.666389
0.611986
0.586658
0.561826
0.536883
0.532013
0.517862
0.517619
0.507625
0.508363
0.50834
0.507963
0.50856
0.508163
0.510575
0.51114
0.510399
0.510042
0.51061
0.510322
0.509411
0.509136
0.506844
0.505392
0.504327
0.504925
0.505304
0.502072
0.497968
0.500627
0.492516
0.491502
0.491647
0.491756
0.491985
0.491862
0.491044
0.490593
0.49038
0.488544
0.485049
0.479955
0.47502
0.4733
0.468753
0.467501
0.467897
0.464364
0.462733
0.460478
0.456975
0.455165
0.449983
0.448684
0.444611
0.443584
0.436906
0.437873
0.435586
0.424214
0.421134
0.417699
0.426182
0.471876
0.589764
0.687538
0.697924
0.71658
0.72779
0.740167
0.747582
0.754691
0.757565
0.760661
0.761758
0.763445
0.763966
0.765522
0.766188
0.768572
0.770052
0.773633
0.775584
0.779287
0.780892
0.784657
0.78647
0.789536
0.790649
0.792921
0.793012
0.793817
0.79276
0.7934
0.792802
0.793962
0.793781
0.79542
0.795876
0.797973
0.798894
0.801307
0.802384
0.804514
0.805343
0.807148
0.807799
0.8094
0.80983
0.811209
0.81149
0.812464
0.812396
0.813231
0.812974
0.813454
0.812785
0.812678
0.811751
0.811748
0.811247
0.811674
0.811634
0.812452
0.812609
0.813419
0.813385
0.8142
0.814317
0.815486
0.815659
0.817028
0.817275
0.818579
0.818853
0.820484
0.820384
0.822074
0.821293
0.823248
0.822055
0.822998
0.818016
0.821832
0.806994
0.822893
0.807606
0.827338
0.796722
0.816475
0.850344
0.846299
0.817841
0.866142
0.859289
0.802334
0.869348
0.959639
0.979341
0.933618
0.943029
0.96164
0.95792
0.955043
0.95367
0.95552
0.966439
0.984112
0.998775
1.03861
1.03223
1.11278
1.07251
1.115
1.0653
1.04548
1.02616
1.02602
1.04538
1.0651
1.11543
1.07257
1.11232
1.03251
1.03806
0.999
0.983849
0.966075
0.955484
0.953447
0.955356
0.958439
0.961084
0.941282
0.929771
0.966336
0.953491
0.874187
0.824178
0.860864
0.857154
0.833063
0.849514
0.849027
0.832734
0.833064
0.839732
0.844726
0.847906
0.837436
0.8696
0.864012
0.883409
0.88379
0.898476
0.899586
0.91253
0.913324
0.924192
0.925009
0.933129
0.935299
0.942665
0.945172
0.951241
0.953617
0.959416
0.961919
0.966284
0.969357
0.973834
0.976537
0.978473
0.98143
0.984099
0.987821
0.990472
0.99241
0.99421
0.997588
0.998084
1.00022
1.00067
1.00246
1.00289
1.00356
1.0044
1.00475
1.00518
1.00533
1.00543
1.00511
1.00506
1.00439
1.00398
1.00259
1.00195
1.00067
0.999765
0.998144
0.996532
0.994278
0.992395
0.990095
0.98776
0.98554
0.982824
0.979599
0.975829
0.972237
0.968104
0.963841
0.959066
0.954154
0.949002
0.943473
0.937364
0.93094
0.924435
0.917598
0.906147
0.89496
0.891022
0.887335
0.878508
0.86883
0.858651
0.848713
0.838532
0.828673
0.816406
0.804764
0.791922
0.779318
0.768601
0.761599
0.7567
0.754818
0.752065
0.757003
0.758221
0.767991
0.776863
0.784911
0.801687
0.806347
0.817735
0.829123
0.841047
0.849862
0.859461
0.868986
0.875331
0.887129
0.89409
0.902723
0.909776
0.916602
0.923652
0.932101
0.938758
0.946034
0.951155
0.958775
0.964855
0.9719
0.979567
0.986584
0.994635
1.00175
1.00961
1.01764
1.0256
1.03426
1.04293
1.05265
1.06166
1.07029
1.07903
1.08882
1.0992
1.11027
1.12189
1.13473
1.14752
1.16031
1.17407
1.19005
1.20681
1.22366
1.24121
1.26131
1.28293
1.30681
1.33077
1.35409
1.3789
1.38859
1.40104
1.37073
1.31545
1.22677
1.11775
0.995364
0.898793
0.829304
0.806516
0.738111
0.681295
0.623929
0.593955
0.568308
0.546533
0.538155
0.524105
0.524964
0.512717
0.511434
0.512626
0.511334
0.511112
0.509538
0.512258
0.511519
0.512396
0.512559
0.512379
0.512322
0.511308
0.509143
0.50797
0.506209
0.50553
0.505884
0.50543
0.50353
0.499206
0.500377
0.493455
0.493386
0.492379
0.491634
0.491919
0.492918
0.491223
0.490411
0.490411
0.489024
0.485474
0.480761
0.474329
0.473845
0.469045
0.467659
0.468119
0.464222
0.462876
0.460684
0.45663
0.455613
0.450022
0.449102
0.444195
0.444057
0.436898
0.438044
0.436461
0.425227
0.421967
0.418106
0.425883
0.470894
0.586894
0.682932
0.698214
0.716636
0.727813
0.740212
0.747577
0.754663
0.757555
0.760686
0.761776
0.763469
0.764013
0.765539
0.766177
0.768577
0.770074
0.773637
0.775573
0.779289
0.780926
0.784707
0.786501
0.789552
0.790669
0.792954
0.793054
0.79384
0.792764
0.79339
0.792806
0.794008
0.793845
0.795463
0.795884
0.797949
0.798839
0.801245
0.80238
0.804644
0.805521
0.807277
0.807905
0.809485
0.809904
0.811273
0.811549
0.812508
0.812432
0.813265
0.812982
0.813463
0.81278
0.812673
0.811741
0.811726
0.811214
0.811625
0.811564
0.81236
0.812506
0.813295
0.81326
0.814054
0.814153
0.81531
0.81544
0.816817
0.816929
0.818326
0.818252
0.82025
0.819647
0.82204
0.820092
0.8233
0.822088
0.8241
0.816053
0.82188
0.810978
0.815932
0.801806
0.825361
0.795196
0.821798
0.873298
0.848053
0.822563
0.872625
0.85303
0.793871
0.868336
0.961783
0.982912
0.933933
0.943028
0.961797
0.957888
0.954487
0.953742
0.955531
0.966543
0.984219
0.998961
1.03877
1.03223
1.11303
1.07263
1.11514
1.06496
1.04479
1.02607
1.02614
1.045
1.06494
1.115
1.07283
1.11221
1.03276
1.03798
0.999032
0.983813
0.96599
0.955573
0.953375
0.955063
0.958556
0.960899
0.940821
0.928436
0.961963
0.952524
0.875968
0.82893
0.859636
0.855419
0.836979
0.851944
0.847687
0.832274
0.831751
0.836547
0.837261
0.848749
0.851068
0.8636
0.869629
0.881066
0.886133
0.897181
0.900291
0.911747
0.913099
0.923622
0.924465
0.932732
0.934804
0.942088
0.944496
0.950692
0.953064
0.958867
0.961137
0.966061
0.968589
0.973104
0.975514
0.978219
0.980745
0.983873
0.986868
0.990132
0.991351
0.9946
0.996256
0.997952
0.999595
1.00006
1.00229
1.00244
1.00338
1.00364
1.00473
1.00469
1.00498
1.00525
1.00495
1.00476
1.00418
1.00372
1.00243
1.00174
1.00051
0.999593
0.997966
0.996369
0.99414
0.992256
0.989972
0.987644
0.985408
0.982691
0.979493
0.975745
0.972157
0.968031
0.963772
0.959017
0.954116
0.94897
0.943453
0.937366
0.930959
0.924425
0.917544
0.906251
0.895282
0.891189
0.887331
0.878551
0.869002
0.858862
0.848958
0.838806
0.828946
0.816775
0.805216
0.792432
0.779839
0.769165
0.76219
0.757446
0.75544
0.752912
0.75776
0.758968
0.768637
0.777607
0.785288
0.802015
0.806776
0.818484
0.829419
0.841455
0.850309
0.859902
0.86982
0.875602
0.88791
0.89453
0.903052
0.910892
0.917008
0.924659
0.932684
0.93961
0.946422
0.9524
0.959255
0.965728
0.972677
0.980285
0.987303
0.995514
1.00264
1.0104
1.01883
1.02632
1.03525
1.0434
1.0537
1.06239
1.07179
1.08047
1.09061
1.10094
1.11245
1.1237
1.1369
1.14977
1.16345
1.17687
1.19282
1.20978
1.2275
1.24526
1.26431
1.28571
1.30687
1.32974
1.34927
1.36608
1.37668
1.38722
1.36459
1.32308
1.24732
1.15839
1.05205
0.955026
0.877757
0.841763
0.766806
0.708288
0.651538
0.620738
0.591618
0.56041
0.550456
0.533084
0.531288
0.520091
0.517778
0.514954
0.514817
0.515481
0.513561
0.514512
0.515073
0.513899
0.514234
0.514699
0.513654
0.513383
0.511888
0.508971
0.506997
0.506924
0.50719
0.506822
0.504049
0.500356
0.502914
0.494009
0.493065
0.492734
0.492613
0.492927
0.492854
0.492153
0.491668
0.491087
0.489576
0.486389
0.480872
0.476751
0.473785
0.469452
0.468197
0.468705
0.4654
0.463393
0.461055
0.457944
0.455843
0.45089
0.449386
0.445727
0.4443
0.437851
0.438501
0.436503
0.425305
0.422045
0.418436
0.425968
0.469342
0.586142
0.686827
0.699766
0.717592
0.72844
0.740544
0.747824
0.754849
0.757656
0.760707
0.761804
0.763488
0.764036
0.765542
0.76616
0.768586
0.770101
0.773629
0.775532
0.779274
0.78094
0.784718
0.786506
0.789554
0.790676
0.792973
0.793091
0.793885
0.792798
0.793404
0.7928
0.793978
0.79381
0.795444
0.79589
0.797982
0.798907
0.801327
0.802402
0.804526
0.805373
0.807191
0.807842
0.809446
0.809881
0.81127
0.811562
0.812519
0.812471
0.813315
0.812997
0.813487
0.812818
0.812693
0.811748
0.811702
0.811149
0.811511
0.811408
0.812178
0.812299
0.813055
0.812998
0.813709
0.81374
0.814804
0.814868
0.8161
0.816239
0.817486
0.817467
0.819028
0.818729
0.820119
0.81861
0.820883
0.820007
0.821138
0.815154
0.821356
0.809169
0.82121
0.805215
0.825854
0.798959
0.826043
0.857576
0.83764
0.811008
0.876421
0.853715
0.7935
0.868308
0.963907
0.985335
0.933758
0.942687
0.961937
0.957891
0.954882
0.953805
0.955512
0.96662
0.984306
0.998752
1.03886
1.03203
1.11313
1.07255
1.11516
1.06532
1.0453
1.02622
1.02597
1.0454
1.06507
1.11532
1.07266
1.11207
1.03262
1.03792
0.998933
0.98377
0.9659
0.955486
0.953326
0.955428
0.958648
0.960669
0.940328
0.927124
0.957875
0.951351
0.877508
0.833342
0.858505
0.85391
0.836067
0.852456
0.850317
0.841561
0.840131
0.845874
0.848215
0.85579
0.853402
0.873027
0.86913
0.887577
0.885206
0.900816
0.899876
0.91333
0.912846
0.924074
0.924412
0.932886
0.934519
0.942212
0.944118
0.950618
0.952757
0.958526
0.960914
0.965658
0.968366
0.972589
0.975282
0.977646
0.980712
0.983378
0.986892
0.989378
0.991845
0.993298
0.99675
0.997026
0.999434
1.00009
1.00176
1.00245
1.00286
1.00358
1.00425
1.00467
1.00459
1.00514
1.00476
1.00451
1.00394
1.00353
1.00225
1.0016
1.00033
0.999397
0.997786
0.99621
0.994005
0.992122
0.989842
0.987514
0.985274
0.982549
0.979362
0.975635
0.972054
0.967942
0.963697
0.958952
0.954062
0.94892
0.943399
0.937322
0.930937
0.924416
0.917501
0.906262
0.895443
0.891368
0.887315
0.878598
0.869132
0.859037
0.849175
0.839044
0.829202
0.817071
0.805615
0.79283
0.780193
0.76965
0.76283
0.757994
0.756178
0.753585
0.758654
0.760081
0.769721
0.778456
0.786681
0.802969
0.807907
0.819215
0.830356
0.842177
0.850997
0.860533
0.869976
0.87639
0.888
0.894937
0.903492
0.910672
0.917588
0.924575
0.933082
0.939585
0.947076
0.952108
0.959815
0.96618
0.973086
0.9809
0.987814
0.996099
1.00309
1.01119
1.01922
1.02722
1.03606
1.04475
1.05432
1.06336
1.07214
1.0814
1.09129
1.10175
1.11289
1.12466
1.13734
1.15032
1.16325
1.17741
1.19325
1.20973
1.22665
1.24428
1.26383
1.28451
1.30694
1.32782
1.34872
1.36593
1.37333
1.38281
1.35575
1.31245
1.2411
1.1519
1.04759
0.956708
0.880396
0.843662
0.776546
0.721038
0.662328
0.626755
0.595658
0.570132
0.557983
0.539842
0.538259
0.523585
0.521465
0.521066
0.518887
0.517708
0.516339
0.517099
0.516711
0.515856
0.515901
0.516609
0.515719
0.513709
0.512951
0.510771
0.509087
0.507726
0.508115
0.507843
0.50525
0.501283
0.502292
0.495803
0.494488
0.493929
0.493097
0.493221
0.493615
0.491754
0.491283
0.491333
0.490509
0.486315
0.482296
0.475631
0.474682
0.469874
0.468613
0.468934
0.464742
0.463793
0.461409
0.456837
0.455784
0.450532
0.449973
0.444624
0.445178
0.437412
0.438109
0.437208
0.426046
0.422808
0.418695
0.425613
0.467272
0.582998
0.682984
0.699796
0.717685
0.728349
0.740588
0.747811
0.754797
0.757624
0.76072
0.761805
0.76351
0.764084
0.765562
0.766149
0.768584
0.77011
0.773622
0.775516
0.779278
0.780981
0.784778
0.786544
0.789575
0.790697
0.793006
0.793137
0.793914
0.792801
0.793389
0.792807
0.794032
0.793876
0.795484
0.795891
0.797953
0.798854
0.801273
0.802394
0.804643
0.805544
0.807327
0.807959
0.809542
0.809963
0.811341
0.811624
0.812575
0.812516
0.813355
0.813015
0.813477
0.812821
0.812689
0.811741
0.811681
0.81111
0.811452
0.811323
0.812063
0.812171
0.812915
0.812854
0.813534
0.813551
0.814579
0.814606
0.81585
0.815878
0.817204
0.816916
0.818809
0.818339
0.81984
0.817969
0.82043
0.819487
0.820869
0.816528
0.820468
0.810798
0.819277
0.805432
0.824621
0.799296
0.831643
0.863454
0.833996
0.823458
0.880403
0.840515
0.785773
0.868044
0.966513
0.987638
0.932847
0.942329
0.962058
0.957975
0.954401
0.953886
0.955457
0.966706
0.984411
0.998832
1.03899
1.03211
1.11323
1.0725
1.1151
1.06496
1.04478
1.02591
1.02612
1.04508
1.06492
1.1151
1.07293
1.11195
1.03264
1.03782
0.998915
0.983726
0.965811
0.955573
0.953271
0.955151
0.958814
0.960474
0.939817
0.925836
0.954885
0.950331
0.878534
0.837502
0.857509
0.852717
0.838873
0.854148
0.850887
0.839245
0.839113
0.844529
0.847031
0.857247
0.859854
0.870376
0.874357
0.885706
0.888202
0.899738
0.901303
0.912412
0.913453
0.923221
0.924643
0.932037
0.934516
0.941472
0.943825
0.949797
0.952292
0.957762
0.9602
0.965092
0.967692
0.971938
0.974346
0.977485
0.979842
0.98321
0.985856
0.98915
0.990632
0.993599
0.995315
0.996696
0.998964
0.999305
1.00158
1.00182
1.0027
1.00283
1.00418
1.00408
1.00418
1.00494
1.00455
1.00414
1.00366
1.00328
1.00203
1.00135
1.00012
0.999197
0.997565
0.995995
0.99382
0.991933
0.989675
0.987359
0.985103
0.982383
0.979222
0.975517
0.971942
0.96784
0.963596
0.958879
0.954004
0.948871
0.943374
0.937317
0.930946
0.924402
0.91743
0.906346
0.895791
0.891559
0.887344
0.878648
0.869336
0.85928
0.849459
0.839367
0.829515
0.817504
0.806137
0.793424
0.780796
0.770272
0.763465
0.758902
0.75689
0.754601
0.759529
0.760776
0.770385
0.779168
0.786952
0.803254
0.80825
0.819857
0.830576
0.842693
0.851369
0.860896
0.871174
0.87653
0.888871
0.895414
0.903971
0.911785
0.918013
0.925775
0.933557
0.940643
0.947397
0.953612
0.960374
0.967096
0.973994
0.98161
0.988715
0.99691
1.00419
1.0119
1.02057
1.02806
1.03712
1.04523
1.05549
1.06417
1.07393
1.08287
1.09306
1.10347
1.11509
1.12641
1.13952
1.15243
1.16616
1.18005
1.19581
1.21235
1.22975
1.24729
1.26582
1.28597
1.3056
1.32622
1.34291
1.35931
1.36567
1.37474
1.34797
1.31816
1.25315
1.18081
1.0885
1.00095
0.923231
0.87546
0.805322
0.748955
0.68871
0.654674
0.62032
0.58666
0.569898
0.549295
0.545374
0.533094
0.528294
0.523497
0.523017
0.522481
0.518485
0.518809
0.518956
0.518963
0.518126
0.518484
0.518
0.516641
0.514065
0.51212
0.510592
0.509657
0.509084
0.508906
0.507547
0.503037
0.505521
0.495729
0.495038
0.493977
0.493803
0.494083
0.493906
0.493081
0.492523
0.491858
0.491148
0.488282
0.482036
0.47863
0.474482
0.470067
0.46899
0.469487
0.466898
0.464133
0.461738
0.459045
0.457019
0.451835
0.45009
0.446765
0.445186
0.439039
0.439252
0.437665
0.426712
0.42327
0.419364
0.425444
0.464686
0.579996
0.683454
0.701483
0.719091
0.729538
0.741137
0.748166
0.755016
0.757717
0.760736
0.761803
0.763515
0.764104
0.765568
0.766137
0.768591
0.770129
0.773604
0.775472
0.779266
0.781003
0.784803
0.786562
0.789583
0.790708
0.793028
0.793181
0.793961
0.792827
0.793397
0.792809
0.794017
0.793855
0.795467
0.795896
0.797979
0.798907
0.801321
0.802387
0.804532
0.805433
0.807268
0.807916
0.809516
0.809954
0.811342
0.811654
0.812618
0.812549
0.813396
0.813047
0.813484
0.81285
0.812706
0.81175
0.811642
0.811027
0.811319
0.811148
0.811828
0.811899
0.812598
0.812511
0.813108
0.813079
0.814003
0.813978
0.815092
0.815115
0.816187
0.816019
0.817588
0.817334
0.818641
0.817144
0.819063
0.817916
0.819855
0.815819
0.81981
0.811803
0.820886
0.810373
0.824836
0.811136
0.83126
0.863831
0.82484
0.820924
0.881184
0.845961
0.783954
0.868228
0.96943
0.989707
0.930879
0.941828
0.962189
0.958102
0.95476
0.953973
0.955413
0.966793
0.984514
0.99872
1.0391
1.03189
1.11335
1.07249
1.11503
1.06542
1.04542
1.02617
1.0261
1.04554
1.06483
1.11538
1.0727
1.11176
1.03258
1.03769
0.998823
0.983676
0.96572
0.955456
0.953235
0.955405
0.958925
0.960295
0.939299
0.924465
0.958213
0.949206
0.879113
0.840658
0.856514
0.852547
0.842734
0.854823
0.850972
0.846366
0.847638
0.850973
0.855658
0.862045
0.863726
0.876148
0.875935
0.890246
0.888861
0.902751
0.901282
0.914188
0.913269
0.924147
0.924354
0.9326
0.934204
0.941622
0.943721
0.949546
0.952217
0.957498
0.960121
0.964672
0.96741
0.971346
0.974218
0.976721
0.979899
0.98257
0.985845
0.98851
0.990926
0.992637
0.99544
0.996121
0.998369
0.999477
1.00088
1.00178
1.00223
1.00275
1.0035
1.00394
1.00391
1.00463
1.00429
1.00386
1.00333
1.00303
1.00179
1.00116
0.999881
0.99894
0.997329
0.995786
0.99364
0.991759
0.989505
0.987183
0.984925
0.982192
0.979046
0.975368
0.971801
0.967719
0.963496
0.95879
0.953927
0.948799
0.94329
0.937252
0.930915
0.924399
0.91739
0.906359
0.895978
0.891793
0.88732
0.878717
0.869503
0.859508
0.849732
0.839672
0.829847
0.817876
0.806635
0.793906
0.781219
0.770865
0.764268
0.759522
0.757773
0.755362
0.760488
0.762079
0.771658
0.780252
0.788595
0.804345
0.809563
0.820855
0.831714
0.843408
0.852194
0.861727
0.871118
0.877458
0.889002
0.89592
0.904327
0.911763
0.918659
0.925637
0.934104
0.940488
0.948144
0.953102
0.960885
0.96752
0.974272
0.982218
0.989156
0.997502
1.00453
1.01278
1.02078
1.02886
1.03776
1.04645
1.05592
1.06503
1.07404
1.08376
1.0937
1.10426
1.11539
1.12719
1.13975
1.15278
1.16591
1.18003
1.19569
1.2118
1.22846
1.24593
1.26458
1.28397
1.3043
1.32288
1.34086
1.35512
1.35872
1.36613
1.33805
1.30372
1.24343
1.17192
1.08165
0.999893
0.923466
0.877013
0.81107
0.756924
0.697701
0.659198
0.623057
0.59372
0.577618
0.556369
0.552046
0.535354
0.53135
0.529493
0.524689
0.523018
0.521718
0.521917
0.520347
0.520723
0.520667
0.519968
0.519405
0.518339
0.516384
0.513138
0.511579
0.511281
0.510905
0.509179
0.507277
0.503713
0.504633
0.498113
0.496422
0.495124
0.493876
0.494375
0.494683
0.493188
0.492747
0.492712
0.491739
0.487464
0.48385
0.477419
0.475943
0.471041
0.46964
0.469853
0.465256
0.464843
0.462369
0.45765
0.456244
0.451494
0.451132
0.445251
0.446438
0.437862
0.438157
0.437921
0.426911
0.423671
0.419337
0.425018
0.461688
0.576313
0.681333
0.701538
0.719173
0.729176
0.741157
0.748128
0.754929
0.757655
0.760719
0.761788
0.763521
0.764149
0.765587
0.766127
0.768583
0.770126
0.773588
0.775451
0.779269
0.781047
0.78487
0.786605
0.789609
0.790733
0.793064
0.793233
0.793994
0.79283
0.793388
0.792831
0.794082
0.793919
0.7955
0.795891
0.797948
0.798854
0.80127
0.802382
0.80465
0.8056
0.807407
0.808034
0.809616
0.810038
0.811415
0.811715
0.812681
0.812601
0.813402
0.813065
0.813514
0.812844
0.812724
0.811747
0.811628
0.810994
0.811259
0.811053
0.811697
0.81175
0.812435
0.812353
0.81291
0.812871
0.813729
0.813689
0.814789
0.814759
0.815838
0.815494
0.817065
0.816786
0.818218
0.817357
0.818352
0.817564
0.818763
0.817145
0.819347
0.812954
0.820122
0.810731
0.824733
0.812963
0.838618
0.86503
0.820027
0.834988
0.884189
0.825543
0.775346
0.868437
0.972764
0.991581
0.927893
0.941258
0.962373
0.958238
0.954416
0.954067
0.955344
0.96688
0.98462
0.998745
1.0392
1.0318
1.1135
1.07255
1.11504
1.0649
1.04474
1.02582
1.02617
1.04511
1.06478
1.11515
1.07276
1.1117
1.03248
1.03763
0.998617
0.983619
0.965627
0.955525
0.953213
0.955237
0.959008
0.960214
0.938908
0.923172
0.967361
0.94815
0.879297
0.844532
0.855783
0.853136
0.847068
0.854944
0.850986
0.84667
0.846884
0.852303
0.855962
0.864644
0.866781
0.876575
0.879395
0.889525
0.892005
0.901742
0.90336
0.91344
0.91417
0.923707
0.924461
0.932558
0.933662
0.941573
0.942869
0.94929
0.951188
0.957159
0.959146
0.964192
0.966544
0.97087
0.973273
0.97674
0.979008
0.982315
0.9849
0.98803
0.989948
0.992098
0.99447
0.995376
0.998194
0.998563
1.00043
1.00109
1.00204
1.0022
1.00319
1.00333
1.00349
1.00434
1.00393
1.00346
1.003
1.00272
1.0015
1.00087
0.999623
0.998692
0.997064
0.99552
0.993405
0.991515
0.989286
0.986985
0.984711
0.98199
0.978868
0.975213
0.971654
0.967586
0.963361
0.958688
0.953844
0.948733
0.943258
0.937241
0.930919
0.924384
0.917305
0.906422
0.896348
0.892003
0.887381
0.878778
0.869738
0.859783
0.850051
0.840037
0.830196
0.818413
0.807199
0.794539
0.781838
0.771549
0.764894
0.760572
0.758554
0.756492
0.761484
0.762804
0.772285
0.780907
0.788829
0.80459
0.809858
0.821406
0.831842
0.844034
0.852452
0.862023
0.872441
0.877603
0.889807
0.896332
0.905003
0.912704
0.919012
0.926906
0.934408
0.941708
0.948486
0.954762
0.961498
0.968501
0.975198
0.982957
0.990143
0.998346
1.00581
1.01343
1.0223
1.02979
1.03897
1.04708
1.05729
1.06601
1.07595
1.08512
1.09538
1.10585
1.11744
1.129
1.14181
1.15487
1.16834
1.18275
1.19787
1.21402
1.23087
1.24781
1.26577
1.28402
1.30209
1.32008
1.33478
1.34795
1.35119
1.35963
1.33488
1.30901
1.25319
1.19277
1.11222
1.03463
0.959207
0.905469
0.83849
0.784335
0.72514
0.685874
0.647585
0.611032
0.592788
0.56697
0.559454
0.546146
0.539974
0.532235
0.53197
0.529232
0.524152
0.524765
0.523058
0.522856
0.522737
0.522701
0.520796
0.520279
0.518127
0.515038
0.51291
0.512303
0.512068
0.511454
0.509653
0.505312
0.507415
0.497638
0.496702
0.495921
0.495134
0.495048
0.495215
0.494043
0.49335
0.493086
0.492709
0.489958
0.483363
0.480628
0.475691
0.471004
0.470091
0.470537
0.468358
0.465001
0.462912
0.460209
0.458213
0.452511
0.450598
0.447702
0.446266
0.440363
0.439893
0.438947
0.428349
0.424668
0.420372
0.424703
0.45847
0.572127
0.679728
0.702757
0.720839
0.731035
0.741957
0.748622
0.755203
0.757767
0.760715
0.761774
0.763502
0.764164
0.765597
0.766124
0.768591
0.77014
0.773566
0.775412
0.77926
0.781075
0.784906
0.786633
0.789623
0.790751
0.793089
0.793284
0.794041
0.792851
0.7934
0.792847
0.79408
0.793909
0.795485
0.795897
0.797962
0.798888
0.80128
0.802357
0.80456
0.805526
0.80736
0.808003
0.809597
0.810038
0.81142
0.81175
0.812702
0.812651
0.813423
0.81309
0.813521
0.812861
0.812732
0.811744
0.81158
0.810915
0.811113
0.810862
0.81143
0.811448
0.812068
0.811973
0.812447
0.812375
0.813095
0.813043
0.814009
0.813987
0.814902
0.814613
0.815832
0.815716
0.817217
0.816292
0.817845
0.816864
0.818028
0.817584
0.818893
0.815905
0.820653
0.816332
0.82618
0.821924
0.831486
0.858326
0.816067
0.829969
0.882928
0.83628
0.771798
0.869094
0.976513
0.993279
0.923925
0.940646
0.962583
0.958389
0.954733
0.954167
0.955257
0.966969
0.984723
0.99879
1.03927
1.0317
1.11365
1.07254
1.11522
1.06558
1.04546
1.02592
1.02602
1.0456
1.06475
1.11523
1.07268
1.11165
1.03239
1.03776
0.998353
0.983554
0.965528
0.955468
0.953205
0.955375
0.958975
0.960211
0.938711
0.923451
0.974744
0.946911
0.879415
0.847042
0.855277
0.853884
0.848788
0.852537
0.853509
0.851971
0.854282
0.858841
0.862222
0.868455
0.870725
0.881032
0.881037
0.893647
0.892465
0.904711
0.90356
0.915057
0.914346
0.924416
0.924796
0.932605
0.934143
0.941001
0.943431
0.948563
0.951561
0.956625
0.959266
0.963621
0.966352
0.970162
0.973153
0.975916
0.978936
0.981774
0.984596
0.987679
0.989557
0.992023
0.993886
0.995375
0.997112
0.998609
0.999828
1.00062
1.00171
1.00196
1.0026
1.00309
1.0032
1.0038
1.00366
1.00312
1.00264
1.00238
1.0012
1.0006
0.999329
0.998379
0.996768
0.995252
0.993175
0.991293
0.989075
0.98676
0.984485
0.981747
0.978643
0.975024
0.97147
0.967431
0.963235
0.958575
0.953747
0.948641
0.943151
0.937161
0.930875
0.924386
0.917275
0.906445
0.896555
0.892285
0.887356
0.878864
0.869939
0.860065
0.85038
0.840423
0.830549
0.818933
0.807653
0.795171
0.78233
0.772396
0.765589
0.761557
0.759234
0.757223
0.762345
0.764135
0.773618
0.782023
0.790464
0.805716
0.811212
0.82243
0.833051
0.844737
0.853379
0.862956
0.872449
0.878583
0.89001
0.897035
0.905385
0.912803
0.919878
0.926739
0.93506
0.941496
0.949156
0.954228
0.961994
0.968804
0.97557
0.983497
0.990646
0.998893
1.00613
1.01437
1.0223
1.03066
1.03938
1.04824
1.05754
1.06682
1.07591
1.08602
1.09585
1.10667
1.11753
1.12964
1.14188
1.155
1.1683
1.18212
1.19724
1.21304
1.22916
1.24614
1.2638
1.28143
1.29978
1.31615
1.33139
1.34312
1.34489
1.35119
1.32356
1.29317
1.24156
1.18194
1.10366
1.03052
0.957684
0.905765
0.841365
0.7889
0.731477
0.689557
0.650506
0.618609
0.598288
0.574958
0.567269
0.549128
0.543136
0.536886
0.532281
0.531554
0.527879
0.527564
0.526668
0.524824
0.524926
0.525065
0.52341
0.520485
0.519832
0.517412
0.514302
0.513817
0.512881
0.511893
0.510111
0.506459
0.508428
0.500572
0.498042
0.496026
0.49545
0.495897
0.495701
0.494055
0.4934
0.493539
0.493162
0.489466
0.485362
0.478806
0.477656
0.472602
0.470519
0.470616
0.465662
0.465949
0.463561
0.45884
0.457046
0.452905
0.452518
0.446019
0.44764
0.438422
0.438377
0.438771
0.427924
0.424642
0.420087
0.424073
0.45532
0.567175
0.677675
0.702817
0.720746
0.730282
0.741943
0.748564
0.755083
0.757689
0.760672
0.761743
0.763495
0.764198
0.765615
0.766115
0.768577
0.770127
0.773545
0.775391
0.779264
0.781118
0.784974
0.786681
0.789658
0.790782
0.793129
0.793344
0.794081
0.792862
0.793407
0.792884
0.794148
0.793967
0.795512
0.795885
0.797928
0.798835
0.801235
0.802355
0.804678
0.805675
0.80749
0.808113
0.809694
0.810118
0.811492
0.811802
0.812757
0.812681
0.813473
0.813102
0.81354
0.812867
0.812751
0.811761
0.811586
0.810893
0.811068
0.810775
0.811305
0.811296
0.811899
0.811815
0.812264
0.812182
0.812819
0.812781
0.813665
0.81368
0.81459
0.814297
0.815346
0.815108
0.816638
0.81613
0.817134
0.816619
0.817465
0.817259
0.818474
0.816185
0.82035
0.815294
0.82579
0.818216
0.83702
0.857195
0.813384
0.842648
0.88369
0.809902
0.76252
0.86982
0.980573
0.994729
0.919195
0.940161
0.962731
0.958564
0.954458
0.954274
0.955172
0.96706
0.984824
0.998761
1.03938
1.03164
1.1138
1.0726
1.11511
1.06471
1.04491
1.0259
1.02615
1.04525
1.06472
1.11521
1.07249
1.11182
1.03219
1.038
0.998119
0.983469
0.965428
0.955538
0.953178
0.955284
0.959086
0.960065
0.939252
0.927306
0.976797
0.945443
0.879513
0.848175
0.856508
0.854709
0.848179
0.856349
0.853623
0.852694
0.854961
0.85977
0.863783
0.87065
0.873522
0.882074
0.884214
0.893402
0.895006