/*--------------------------------*- C++ -*----------------------------------*\
| =========                 |                                                 |
| \\      /  F ield         | OpenFOAM: The Open Source CFD Toolbox           |
|  \\    /   O peration     | Version:  v2006                                 |
|   \\  /    A nd           | Website:  www.openfoam.com                      |
|    \\/     M anipulation  |                                                 |
\*---------------------------------------------------------------------------*/
FoamFile
{
    version     2.0;
    format      ascii;
    class       volScalarField;
    location    "220";
    object      pMean;
}
// * * * * * * * * * * * * * * * * * * * * * * * * * * * * * * * * * * * * * //

dimensions      [1 -1 -2 0 0 0 0];


internalField   nonuniform List<scalar> 
93840
(
1.02577
1.02241
1.01983
1.0158
1.0129
1.00896
1.00992
1.0071
1.00994
1.00911
1.01307
1.01439
1.01968
1.02307
1.02964
1.03419
1.03995
1.04267
1.04592
1.04569
1.04618
1.04626
1.04623
1.04251
1.04052
1.03891
1.0364
1.03715
1.03444
1.03729
1.03206
1.05678
1.03353
1.04233
1.04872
1.05382
1.05701
1.06141
1.06406
1.06812
1.07012
1.07306
1.07494
1.07748
1.07934
1.082
1.08402
1.08611
1.08773
1.08999
1.09155
1.09312
1.09497
1.09751
1.09848
1.09861
1.09951
1.10088
1.10296
1.10439
1.10485
1.10599
1.10722
1.10738
1.10771
1.1082
1.10831
1.10803
1.10817
1.108
1.10767
1.10739
1.10684
1.10603
1.10541
1.10448
1.1035
1.10244
1.10103
1.09966
1.09835
1.09687
1.09528
1.09321
1.09111
1.08901
1.08666
1.08438
1.08201
1.07945
1.07626
1.07281
1.06937
1.06566
1.06182
1.05757
1.0533
1.04887
1.04427
1.03922
1.03403
1.02888
1.02366
1.01462
1.0053
1.00204
0.999449
0.992306
0.984435
0.976592
0.968932
0.9613
0.954
0.945087
0.937149
0.929217
0.922314
0.913971
0.907762
0.901338
0.897354
0.892103
0.891562
0.888652
0.892653
0.896795
0.897808
0.908091
0.909894
0.916539
0.924396
0.930635
0.93909
0.944148
0.951052
0.957182
0.965343
0.970793
0.977846
0.98263
0.988394
0.993521
1.00066
1.00596
1.01177
1.01679
1.0223
1.02719
1.03342
1.0395
1.04574
1.05154
1.05799
1.06438
1.07137
1.07806
1.08543
1.0927
1.10115
1.10937
1.11696
1.12399
1.13249
1.14134
1.15099
1.16123
1.17274
1.18399
1.19506
1.20694
1.22147
1.23721
1.25347
1.26873
1.2869
1.30708
1.32913
1.35456
1.37943
1.40401
1.41908
1.4319
1.40138
1.33204
1.20861
1.07415
0.92661
0.83279
0.790586
0.788439
0.710506
0.655062
0.612445
0.591494
0.563867
0.554748
0.546018
0.54089
0.536806
0.533865
0.535569
0.53712
0.537999
0.538833
0.53999
0.542221
0.544338
0.545949
0.54791
0.549269
0.549844
0.550522
0.550855
0.550871
0.551528
0.552777
0.553849
0.554171
0.55455
0.553511
0.550522
0.549344
0.550494
0.551757
0.553682
0.555634
0.557607
0.559983
0.563885
0.568004
0.56834
0.565647
0.564591
0.562886
0.562611
0.564526
0.566773
0.570262
0.574916
0.578614
0.580699
0.582033
0.584344
0.586098
0.590359
0.596281
0.60446
0.60774
0.616702
0.618643
0.620695
0.632556
0.647368
0.669316
0.69578
0.724026
0.741682
0.753918
0.766006
0.777937
0.789951
0.802989
0.815797
0.826201
0.834145
0.841856
0.848341
0.855403
0.86452
0.873473
0.87732
0.880891
0.887989
0.89645
0.901402
0.904616
0.909275
0.915185
0.920444
0.925029
0.929657
0.934141
0.938625
0.942876
0.947166
0.951298
0.955188
0.958969
0.962615
0.966236
0.96966
0.972741
0.975688
0.978379
0.980989
0.98344
0.985853
0.988077
0.990243
0.992002
0.99389
0.995513
0.997099
0.998499
1.00026
1.00167
1.00341
1.00458
1.00618
1.00711
1.00874
1.00948
1.01114
1.01171
1.0133
1.01379
1.01558
1.01597
1.01775
1.01796
1.01973
1.01966
1.02144
1.02118
1.02297
1.02245
1.02437
1.02364
1.02564
1.02451
1.02667
1.02506
1.02763
1.02504
1.02789
1.02414
1.02213
1.02611
1.02997
1.0329
1.03615
1.03906
1.04238
1.04225
1.04333
1.04655
1.04654
1.04651
1.04564
1.04598
1.04264
1.03994
1.03409
1.02955
1.02296
1.01955
1.01421
1.01291
1.00891
1.00971
1.00685
1.00956
1.00869
1.01251
1.01549
1.01956
1.02219
1.0256
1.02559
1.02218
1.01956
1.01548
1.01251
1.00869
1.00957
1.00685
1.00972
1.00892
1.01293
1.01424
1.01959
1.02299
1.02959
1.03411
1.03996
1.04266
1.046
1.04573
1.04661
1.04675
1.04675
1.04377
1.04254
1.04182
1.03889
1.03703
1.03476
1.03478
1.03223
1.03492
1.03928
1.04419
1.04898
1.0533
1.0567
1.06075
1.06339
1.06715
1.06925
1.07238
1.07426
1.07699
1.07883
1.08145
1.08332
1.08557
1.08721
1.08941
1.091
1.09278
1.09445
1.0966
1.09773
1.09836
1.09939
1.10068
1.10245
1.10382
1.10451
1.10559
1.10669
1.10699
1.10739
1.10782
1.10797
1.10778
1.1079
1.10772
1.10742
1.10713
1.1066
1.10583
1.1052
1.10428
1.10332
1.10226
1.10087
1.09952
1.0982
1.09671
1.09512
1.09307
1.09099
1.08889
1.08656
1.08428
1.08189
1.07932
1.07615
1.07273
1.06929
1.0656
1.06176
1.05752
1.05327
1.04884
1.04424
1.03921
1.03404
1.02885
1.02358
1.01471
1.00561
1.0022
0.999388
0.992316
0.984573
0.976772
0.969148
0.961532
0.954237
0.945396
0.937542
0.929644
0.922749
0.914502
0.90836
0.901992
0.898005
0.892885
0.892369
0.889556
0.893502
0.897557
0.89867
0.908709
0.910638
0.917289
0.925025
0.931236
0.939603
0.944702
0.951642
0.957726
0.96581
0.971258
0.978297
0.983119
0.988967
0.994108
1.00118
1.00647
1.01234
1.0174
1.02299
1.02797
1.03422
1.04028
1.04657
1.05246
1.05898
1.06543
1.07247
1.07925
1.08673
1.09409
1.10249
1.11068
1.11852
1.12593
1.13464
1.14368
1.15357
1.164
1.17557
1.18712
1.199
1.21161
1.22626
1.2418
1.25833
1.27461
1.29302
1.3125
1.33285
1.35432
1.37491
1.39491
1.40298
1.41494
1.3898
1.34624
1.26269
1.15862
1.03626
0.931838
0.862966
0.835048
0.759984
0.701393
0.651359
0.624493
0.590539
0.574699
0.562158
0.553865
0.547554
0.542491
0.542252
0.543009
0.543263
0.543498
0.544025
0.545616
0.547393
0.548758
0.550434
0.551639
0.552091
0.552586
0.552794
0.552667
0.553105
0.554158
0.555161
0.555453
0.555779
0.554854
0.551874
0.550394
0.551325
0.552498
0.554324
0.556224
0.558175
0.560519
0.564375
0.568495
0.569005
0.566392
0.565284
0.563542
0.563136
0.564948
0.567176
0.570648
0.57531
0.578998
0.581081
0.582414
0.584742
0.586489
0.590724
0.59661
0.604872
0.608089
0.61686
0.61902
0.621057
0.632819
0.647723
0.669697
0.696176
0.724427
0.742034
0.754192
0.766245
0.778156
0.790159
0.80319
0.816006
0.826395
0.834288
0.841983
0.848529
0.855629
0.864588
0.873393
0.877392
0.881155
0.888148
0.896397
0.901384
0.904763
0.90945
0.915273
0.920504
0.925111
0.929751
0.934238
0.93872
0.942967
0.94724
0.951363
0.955257
0.959039
0.962681
0.96627
0.969686
0.972805
0.975767
0.978472
0.98106
0.983494
0.985898
0.988107
0.990276
0.992045
0.993935
0.995561
0.997168
0.998567
1.00034
1.00172
1.00345
1.00462
1.00622
1.00715
1.00877
1.00948
1.01112
1.01168
1.0133
1.01381
1.01558
1.01595
1.01769
1.01787
1.01964
1.01955
1.02133
1.02105
1.02281
1.02228
1.02417
1.02341
1.02533
1.02418
1.02627
1.0245
1.02718
1.02381
1.02894
1.01936
1.03348
1.02624
1.03025
1.02995
1.0328
1.03386
1.03683
1.03907
1.04156
1.04553
1.04568
1.04594
1.0456
1.04591
1.04266
1.03995
1.03417
1.0296
1.02305
1.01966
1.01438
1.01306
1.0091
1.00995
1.0071
1.00992
1.00896
1.0129
1.01579
1.01983
1.02241
1.02577
1.02578
1.02242
1.01984
1.0158
1.01291
1.00897
1.00993
1.00711
1.00995
1.00913
1.0131
1.01443
1.01972
1.02312
1.02968
1.03423
1.03998
1.04271
1.04595
1.04588
1.04653
1.04672
1.04681
1.04349
1.04192
1.04094
1.03931
1.03976
1.03917
1.04117
1.04359
1.04638
1.03848
1.05162
1.04854
1.05632
1.05652
1.06194
1.06329
1.06753
1.06914
1.0724
1.07413
1.07688
1.07869
1.08127
1.08315
1.08536
1.08704
1.08919
1.09079
1.09257
1.09425
1.09634
1.09745
1.09815
1.09922
1.10052
1.10225
1.10358
1.10431
1.10539
1.10647
1.10678
1.10721
1.10763
1.1078
1.10761
1.10773
1.10757
1.10728
1.10697
1.10646
1.10569
1.10506
1.10416
1.10319
1.10213
1.10077
1.09941
1.09809
1.0966
1.09502
1.09299
1.09091
1.08881
1.08648
1.08421
1.08181
1.07925
1.07608
1.07267
1.06924
1.06554
1.06171
1.05749
1.05324
1.04881
1.04421
1.0392
1.03403
1.02884
1.02355
1.01473
1.00574
1.00229
0.999389
0.992336
0.984651
0.976876
0.969273
0.961677
0.95438
0.945583
0.937775
0.929904
0.923027
0.914813
0.908737
0.902374
0.89843
0.893319
0.892857
0.890087
0.894012
0.898027
0.899189
0.909124
0.911097
0.917747
0.92543
0.931633
0.939954
0.945071
0.952016
0.958088
0.966134
0.971581
0.978605
0.983448
0.989317
0.994468
1.00151
1.00681
1.0127
1.01779
1.0234
1.02843
1.03469
1.04077
1.04708
1.05301
1.05956
1.06604
1.07311
1.07992
1.08743
1.09482
1.10323
1.1114
1.11929
1.12681
1.13558
1.14464
1.15456
1.16496
1.17645
1.18789
1.19967
1.21217
1.22673
1.24212
1.25845
1.27453
1.29307
1.31303
1.33488
1.35766
1.37993
1.40238
1.41133
1.42464
1.39519
1.34875
1.26152
1.1587
1.03466
0.938959
0.869767
0.842264
0.769573
0.713726
0.6628
0.634224
0.598882
0.582194
0.568977
0.56008
0.553183
0.547459
0.545979
0.546244
0.546307
0.546309
0.546482
0.54769
0.549284
0.550481
0.551991
0.55313
0.55351
0.553886
0.554024
0.553804
0.554093
0.555002
0.555963
0.556221
0.556505
0.555634
0.552644
0.55104
0.551845
0.552952
0.554721
0.55659
0.558522
0.56084
0.564691
0.568819
0.569434
0.566834
0.565684
0.563907
0.563428
0.565193
0.567402
0.570858
0.575547
0.57926
0.581342
0.582646
0.584973
0.586706
0.590912
0.596774
0.605124
0.608313
0.616984
0.619283
0.621259
0.632878
0.647709
0.66959
0.696056
0.724377
0.742211
0.754378
0.766387
0.778291
0.790267
0.803267
0.816082
0.826498
0.834413
0.842094
0.848654
0.855757
0.86465
0.873413
0.877469
0.881281
0.888226
0.89641
0.901419
0.904847
0.909537
0.915331
0.920551
0.925165
0.929808
0.934294
0.93877
0.943014
0.947278
0.951395
0.955295
0.95908
0.962717
0.966301
0.969704
0.972798
0.975758
0.97847
0.981094
0.983532
0.985939
0.98813
0.990279
0.99203
0.993883
0.995498
0.997139
0.998537
1.00028
1.00167
1.00338
1.00455
1.00616
1.00709
1.00869
1.00943
1.01106
1.01164
1.01325
1.01374
1.01549
1.01585
1.01761
1.01778
1.01954
1.01947
1.02125
1.02097
1.02275
1.02223
1.02408
1.02332
1.02522
1.02413
1.02612
1.02462
1.02685
1.02488
1.02747
1.02473
1.0281
1.02604
1.02988
1.0318
1.0347
1.03791
1.04117
1.04098
1.04265
1.04608
1.04615
1.04632
1.04549
1.04594
1.04262
1.03991
1.03405
1.02951
1.02291
1.01951
1.01419
1.01289
1.0089
1.00971
1.00685
1.00956
1.0087
1.01251
1.0155
1.01956
1.0222
1.0256
1.02558
1.02216
1.01954
1.01546
1.0125
1.00867
1.00956
1.00683
1.00971
1.00891
1.01294
1.01424
1.01961
1.02301
1.02961
1.03413
1.03997
1.04266
1.046
1.04585
1.04679
1.04707
1.04713
1.04443
1.0434
1.04285
1.04083
1.03987
1.03825
1.03864
1.03876
1.04219
1.04425
1.04766
1.05079
1.05448
1.05727
1.0609
1.06331
1.06673
1.06879
1.07184
1.07372
1.07647
1.07828
1.08085
1.08265
1.08493
1.0866
1.08875
1.09034
1.0922
1.09379
1.09571
1.09692
1.09786
1.099
1.10026
1.10182
1.10313
1.10397
1.10501
1.10602
1.10643
1.10689
1.10728
1.10748
1.10736
1.10747
1.10731
1.10703
1.10673
1.10623
1.10549
1.10486
1.10397
1.10301
1.10196
1.10061
1.09928
1.09795
1.09646
1.09486
1.09286
1.0908
1.0887
1.08638
1.0841
1.0817
1.07912
1.07599
1.0726
1.06917
1.06548
1.06165
1.05745
1.05321
1.04879
1.04419
1.03919
1.03404
1.02883
1.0235
1.01483
1.00601
1.00246
0.999358
0.992378
0.984797
0.977062
0.969492
0.961917
0.954634
0.94589
0.938164
0.930324
0.923442
0.915329
0.909283
0.903006
0.898998
0.894073
0.893577
0.890881
0.894781
0.898699
0.899934
0.909661
0.911739
0.918377
0.925962
0.932134
0.940382
0.945525
0.952496
0.958525
0.966514
0.971955
0.978975
0.983844
0.989785
0.99494
1.00194
1.00724
1.01316
1.01828
1.02396
1.02905
1.03533
1.04137
1.04774
1.05371
1.06032
1.06682
1.07393
1.0808
1.08837
1.09582
1.10419
1.11235
1.1204
1.12815
1.13707
1.14625
1.15633
1.16685
1.17842
1.19009
1.20232
1.21525
1.22986
1.24518
1.26157
1.27809
1.29638
1.31595
1.33629
1.35782
1.37697
1.39413
1.40395
1.41238
1.39177
1.35658
1.28285
1.19644
1.09049
0.993849
0.917165
0.875342
0.803429
0.744907
0.6903
0.658095
0.619138
0.597739
0.581416
0.569885
0.561313
0.55394
0.551059
0.55059
0.550276
0.54984
0.549663
0.550366
0.551735
0.552823
0.554135
0.555152
0.555476
0.555724
0.555767
0.555448
0.555568
0.556312
0.557211
0.557458
0.557699
0.556953
0.554006
0.552073
0.552661
0.553691
0.555363
0.557178
0.559081
0.561372
0.565178
0.569318
0.570113
0.567615
0.566416
0.564607
0.563993
0.565637
0.567817
0.571257
0.575967
0.579686
0.581746
0.583055
0.585396
0.587113
0.591282
0.597143
0.605584
0.608726
0.617161
0.619638
0.621597
0.633048
0.647921
0.669785
0.696324
0.724819
0.742707
0.754733
0.766665
0.778541
0.79048
0.803449
0.816294
0.826738
0.834594
0.842239
0.848832
0.855965
0.864734
0.873369
0.877532
0.881499
0.888374
0.896394
0.901415
0.904971
0.90969
0.915421
0.920618
0.925248
0.929903
0.934395
0.938871
0.94311
0.947357
0.951463
0.95537
0.959158
0.962794
0.96634
0.969721
0.97285
0.975828
0.978552
0.981162
0.983587
0.985993
0.988178
0.990321
0.99209
0.993971
0.995589
0.997223
0.998645
1.00038
1.00175
1.00345
1.00461
1.0062
1.00713
1.00872
1.00944
1.01107
1.01163
1.01325
1.01373
1.01547
1.01579
1.01751
1.01765
1.01939
1.01928
1.02104
1.02074
1.02252
1.02195
1.02381
1.02296
1.02488
1.02363
1.02576
1.0239
1.02665
1.02375
1.02798
1.02317
1.02962
1.02605
1.03031
1.02973
1.03194
1.03306
1.03576
1.03792
1.04072
1.04493
1.04522
1.04575
1.04545
1.04589
1.04264
1.03992
1.03415
1.02956
1.02301
1.01961
1.01434
1.01304
1.00908
1.00992
1.00708
1.00992
1.00896
1.01289
1.01578
1.01983
1.0224
1.02576
1.02579
1.02242
1.01985
1.01581
1.01291
1.00899
1.00995
1.00714
1.00998
1.00916
1.01312
1.01446
1.01976
1.02317
1.02973
1.03426
1.04
1.04273
1.04599
1.04602
1.04681
1.04705
1.04717
1.04416
1.04289
1.04218
1.04106
1.04205
1.04211
1.04408
1.04458
1.0478
1.04524
1.05278
1.05096
1.05759
1.05727
1.06254
1.06326
1.06748
1.06872
1.0721
1.07363
1.07647
1.07816
1.08072
1.08248
1.08473
1.0864
1.0885
1.09011
1.09195
1.09354
1.0954
1.09662
1.0976
1.09879
1.10004
1.10158
1.10285
1.10372
1.10475
1.10574
1.10616
1.10664
1.10703
1.10724
1.10714
1.10725
1.10709
1.10684
1.10652
1.10604
1.10532
1.10469
1.10379
1.10285
1.10179
1.10046
1.09913
1.0978
1.09631
1.09472
1.09273
1.09067
1.08859
1.08627
1.084
1.0816
1.07901
1.07589
1.07251
1.06909
1.06539
1.06157
1.05739
1.05316
1.04875
1.04415
1.03917
1.03403
1.02881
1.02345
1.01484
1.00618
1.00258
0.999379
0.992407
0.984901
0.9772
0.969662
0.962113
0.954823
0.946148
0.938477
0.930681
0.923828
0.915743
0.909807
0.903506
0.899597
0.894624
0.894241
0.891592
0.89546
0.899331
0.900631
0.91023
0.91236
0.918998
0.926514
0.93268
0.940868
0.946035
0.953005
0.959023
0.966958
0.972402
0.979394
0.984286
0.990244
0.995418
1.00237
1.00768
1.01361
1.01875
1.02446
1.02959
1.03588
1.04193
1.04831
1.05432
1.06095
1.06747
1.07461
1.08149
1.08908
1.09654
1.1049
1.11305
1.12114
1.12895
1.1379
1.14709
1.15715
1.16763
1.1791
1.19062
1.20273
1.21548
1.22994
1.24503
1.2612
1.27738
1.29562
1.31472
1.33522
1.35547
1.37497
1.39293
1.39943
1.40782
1.38195
1.3459
1.2741
1.19094
1.08423
0.99588
0.919453
0.879465
0.809377
0.754331
0.699998
0.666905
0.626993
0.6051
0.588175
0.576251
0.567156
0.55918
0.555234
0.554486
0.55382
0.553052
0.552477
0.552812
0.553796
0.55478
0.555897
0.556817
0.557119
0.557237
0.557223
0.556828
0.556773
0.557349
0.558205
0.558417
0.558604
0.55793
0.555002
0.552964
0.553375
0.554302
0.555899
0.557668
0.55956
0.561809
0.565606
0.569753
0.57068
0.568202
0.566945
0.565088
0.564382
0.565957
0.568107
0.571536
0.576299
0.580043
0.582097
0.583358
0.585696
0.587391
0.591514
0.597339
0.605917
0.609026
0.617326
0.619964
0.621838
0.633103
0.647894
0.669649
0.696194
0.724904
0.74304
0.755034
0.766902
0.778769
0.790673
0.803587
0.816448
0.826934
0.834798
0.842414
0.849018
0.85614
0.864821
0.873411
0.877648
0.881658
0.88846
0.896404
0.901462
0.905073
0.909789
0.915488
0.920674
0.92531
0.929966
0.934454
0.93892
0.943152
0.947387
0.951489
0.955404
0.959193
0.962823
0.966354
0.96972
0.97283
0.975807
0.978539
0.981163
0.983609
0.986002
0.988178
0.99031
0.992061
0.993906
0.995523
0.997172
0.998593
1.00031
1.00167
1.00336
1.00452
1.00611
1.00704
1.00862
1.00935
1.01095
1.01154
1.01315
1.01361
1.0153
1.01563
1.01736
1.0175
1.01922
1.01915
1.02087
1.0206
1.02234
1.02183
1.02358
1.02286
1.02459
1.02363
1.02539
1.02417
1.0261
1.02466
1.02696
1.0253
1.02832
1.02695
1.03019
1.03113
1.03342
1.03542
1.03909
1.03949
1.04158
1.04521
1.04557
1.0461
1.04547
1.04592
1.04261
1.0399
1.03402
1.02947
1.02288
1.01949
1.01417
1.01288
1.0089
1.0097
1.00686
1.00956
1.00871
1.01251
1.0155
1.01957
1.02221
1.02561
1.02556
1.02215
1.01953
1.01545
1.01249
1.00866
1.00956
1.00683
1.00971
1.00892
1.01295
1.01426
1.01964
1.02304
1.02965
1.03414
1.03997
1.04266
1.04601
1.04597
1.04701
1.04735
1.0475
1.04506
1.04424
1.04382
1.04228
1.04192
1.04107
1.04223
1.04296
1.04584
1.0474
1.05041
1.05272
1.05591
1.05819
1.06142
1.06355
1.06667
1.06861
1.07151
1.07334
1.07601
1.07779
1.08027
1.08202
1.08429
1.08594
1.08805
1.08963
1.09152
1.09305
1.09483
1.09609
1.09725
1.09845
1.09971
1.10113
1.10238
1.10331
1.10432
1.10527
1.10575
1.10626
1.10665
1.10687
1.10683
1.10693
1.10678
1.10654
1.10623
1.10576
1.10506
1.10443
1.10356
1.10261
1.10157
1.10026
1.09895
1.09762
1.09612
1.09453
1.09257
1.09053
1.08843
1.08614
1.08386
1.08145
1.07886
1.07575
1.0724
1.06899
1.06532
1.0615
1.05733
1.05311
1.04869
1.0441
1.03914
1.03402
1.0288
1.02342
1.01493
1.00644
1.00276
0.999348
0.99246
0.985063
0.977412
0.969916
0.962398
0.95513
0.9465
0.938936
0.931175
0.924304
0.916351
0.910423
0.904254
0.900219
0.895515
0.895053
0.892475
0.896344
0.900088
0.901464
0.910838
0.913071
0.919691
0.927104
0.933233
0.941344
0.946531
0.953523
0.959493
0.96737
0.972801
0.979791
0.984705
0.990732
0.995906
1.00281
1.00813
1.0141
1.01926
1.02503
1.03022
1.03652
1.04257
1.04898
1.05504
1.06171
1.06827
1.07545
1.08239
1.09004
1.09755
1.1059
1.11404
1.12229
1.13032
1.13939
1.1487
1.1589
1.16948
1.18103
1.19275
1.20519
1.21822
1.23268
1.2477
1.26375
1.28007
1.29776
1.31632
1.33516
1.35453
1.37098
1.38684
1.39327
1.40173
1.37922
1.35112
1.28931
1.21718
1.12603
1.03887
0.9611
0.910969
0.841911
0.784249
0.727344
0.690931
0.648223
0.621987
0.601768
0.586866
0.575906
0.566176
0.560487
0.558698
0.557458
0.556519
0.555547
0.555542
0.556167
0.557082
0.557979
0.55884
0.559074
0.559111
0.558976
0.558518
0.558278
0.558708
0.559452
0.559739
0.559878
0.559366
0.55653
0.554118
0.554277
0.555135
0.556623
0.558346
0.560209
0.562429
0.566169
0.570347
0.571496
0.569176
0.567865
0.565977
0.565095
0.566516
0.568622
0.57202
0.576827
0.580593
0.582612
0.583882
0.586236
0.587913
0.591977
0.597821
0.606527
0.609593
0.61756
0.620402
0.622233
0.633237
0.647993
0.669673
0.696297
0.725329
0.743646
0.75549
0.767254
0.779093
0.790934
0.80378
0.816683
0.827235
0.835062
0.842626
0.849249
0.856383
0.864932
0.873398
0.877741
0.881884
0.888613
0.896409
0.90148
0.905202
0.909943
0.915582
0.920747
0.925397
0.930063
0.934557
0.939023
0.94325
0.947469
0.95156
0.955475
0.959265
0.962892
0.966388
0.969735
0.972869
0.975862
0.978606
0.981223
0.98366
0.986051
0.98822
0.990355
0.992124
0.993988
0.995597
0.997255
0.998674
1.00039
1.00172
1.0034
1.00454
1.00614
1.00705
1.00862
1.00934
1.01093
1.01148
1.01309
1.01354
1.01523
1.01552
1.01721
1.01729
1.01901
1.01887
1.02062
1.02028
1.02208
1.02148
1.02333
1.02245
1.02435
1.02314
1.0252
1.02358
1.02607
1.02392
1.02721
1.02457
1.02871
1.02673
1.03033
1.03022
1.03233
1.03296
1.03517
1.03669
1.03953
1.04404
1.04474
1.04556
1.04535
1.04588
1.0426
1.0399
1.03411
1.02952
1.02296
1.01959
1.01432
1.01301
1.00906
1.00991
1.00707
1.00991
1.00895
1.01289
1.01578
1.01982
1.02239
1.02575
1.0258
1.02244
1.01986
1.01582
1.01292
1.00899
1.00996
1.00716
1.00999
1.00918
1.01314
1.01449
1.0198
1.0232
1.02977
1.03429
1.04003
1.04275
1.04602
1.04614
1.04707
1.04736
1.04754
1.04489
1.04384
1.04349
1.04285
1.04407
1.0444
1.04625
1.04654
1.04952
1.04894
1.05394
1.05336
1.05851
1.05847
1.06307
1.06364
1.06757
1.06862
1.07191
1.07329
1.0761
1.07768
1.08018
1.08186
1.08409
1.08574
1.08779
1.08938
1.09122
1.09276
1.09449
1.09578
1.09694
1.09818
1.09942
1.10084
1.10205
1.103
1.104
1.10494
1.10543
1.10595
1.10634
1.10659
1.10655
1.10666
1.10651
1.10629
1.10598
1.10551
1.10483
1.1042
1.10334
1.10241
1.10136
1.10007
1.09876
1.09743
1.09594
1.09435
1.09239
1.09036
1.08829
1.08599
1.08372
1.08131
1.07872
1.07562
1.07228
1.06887
1.06521
1.0614
1.05725
1.05304
1.04864
1.04406
1.03911
1.034
1.02877
1.02335
1.01494
1.00665
1.00291
0.99938
0.992498
0.985198
0.977585
0.970128
0.962645
0.955362
0.946825
0.939321
0.931614
0.924789
0.916851
0.911072
0.904845
0.90096
0.896148
0.895836
0.893314
0.897131
0.900823
0.90227
0.9115
0.913782
0.920398
0.927728
0.933848
0.941888
0.947094
0.954075
0.960031
0.967848
0.973281
0.980238
0.985173
0.991209
0.996392
1.00326
1.00858
1.01456
1.01975
1.02554
1.03077
1.03708
1.04312
1.04956
1.05564
1.06234
1.06892
1.0761
1.08307
1.09072
1.09825
1.10658
1.11471
1.12298
1.13104
1.14013
1.14942
1.15959
1.17009
1.18152
1.19307
1.20536
1.21816
1.23243
1.24715
1.26296
1.27887
1.29635
1.31429
1.33305
1.35105
1.36769
1.38284
1.38649
1.39424
1.36874
1.33824
1.27711
1.20943
1.11747
1.03802
0.960436
0.91319
0.845207
0.791251
0.735183
0.698749
0.655475
0.629139
0.608367
0.593293
0.581887
0.571893
0.565316
0.563083
0.561563
0.560134
0.5588
0.558295
0.558694
0.559259
0.560068
0.56069
0.560923
0.560795
0.560609
0.560019
0.559678
0.559883
0.5606
0.560781
0.56091
0.560438
0.557621
0.555099
0.555084
0.555778
0.557247
0.558846
0.560722
0.562879
0.566658
0.570822
0.572127
0.569847
0.568482
0.566552
0.565573
0.566905
0.568968
0.572354
0.577234
0.581043
0.58304
0.584247
0.586597
0.588245
0.592256
0.598045
0.606935
0.609991
0.617759
0.620773
0.622527
0.633288
0.647958
0.66954
0.696212
0.72561
0.744178
0.755918
0.767604
0.779431
0.791219
0.803986
0.816925
0.827546
0.835351
0.842873
0.8495
0.856615
0.865056
0.873472
0.877898
0.882083
0.888719
0.896424
0.901543
0.905323
0.910059
0.915664
0.920821
0.925476
0.93014
0.934628
0.939082
0.943299
0.947505
0.951593
0.955515
0.959303
0.962925
0.96641
0.969744
0.972862
0.975845
0.978585
0.981223
0.983663
0.986052
0.988211
0.990326
0.992086
0.993922
0.99553
0.997186
0.998604
1.0003
1.00164
1.00329
1.00443
1.00602
1.00694
1.0085
1.00922
1.01078
1.01136
1.01294
1.01339
1.01502
1.01532
1.01699
1.01711
1.01878
1.0187
1.02037
1.0201
1.02179
1.02132
1.02299
1.02235
1.02398
1.02318
1.0248
1.02387
1.0256
1.02459
1.0266
1.0256
1.02812
1.02739
1.03021
1.03082
1.03306
1.03422
1.03689
1.03769
1.0401
1.04405
1.04492
1.04587
1.04542
1.04593
1.04259
1.03988
1.034
1.02943
1.02284
1.01946
1.01415
1.01287
1.00889
1.0097
1.00686
1.00956
1.00872
1.01251
1.01551
1.01958
1.02222
1.02562
1.02556
1.02214
1.01952
1.01544
1.01249
1.00864
1.00955
1.00682
1.00971
1.00892
1.01296
1.01428
1.01967
1.02307
1.02969
1.03417
1.03999
1.04267
1.04603
1.04608
1.04723
1.04761
1.04783
1.04573
1.04511
1.04491
1.04382
1.04395
1.04371
1.04517
1.0461
1.04854
1.04997
1.05262
1.05451
1.05731
1.05925
1.06212
1.064
1.06684
1.06862
1.07134
1.07308
1.07563
1.07734
1.07974
1.08142
1.08364
1.08526
1.08733
1.08888
1.09075
1.09224
1.09395
1.09524
1.09652
1.09776
1.09902
1.10034
1.10156
1.10253
1.10352
1.10442
1.10497
1.10551
1.10589
1.10616
1.10616
1.10627
1.10614
1.10594
1.10563
1.10518
1.10452
1.1039
1.10304
1.10212
1.10109
1.09982
1.09853
1.0972
1.09571
1.09412
1.09219
1.09018
1.08809
1.08581
1.08354
1.08112
1.07852
1.07546
1.07215
1.06875
1.0651
1.06131
1.05716
1.05296
1.04857
1.04399
1.03906
1.03398
1.02877
1.02333
1.01503
1.0069
1.00312
0.999368
0.992554
0.985379
0.977824
0.970416
0.96297
0.955722
0.947221
0.939839
0.932176
0.925311
0.917541
0.91172
0.905684
0.901581
0.897128
0.896675
0.894233
0.898084
0.901624
0.903141
0.912144
0.914524
0.921112
0.928341
0.934424
0.942385
0.94761
0.954608
0.960518
0.96828
0.973699
0.980655
0.985613
0.991712
0.996901
1.00374
1.00905
1.01507
1.02028
1.02613
1.03141
1.03774
1.04378
1.05025
1.05638
1.06313
1.06974
1.07698
1.08398
1.09169
1.09926
1.10761
1.11576
1.12414
1.13239
1.14159
1.151
1.16128
1.17188
1.18338
1.1951
1.20756
1.22056
1.23473
1.24936
1.26489
1.28071
1.29748
1.31475
1.33191
1.34904
1.36317
1.3766
1.38007
1.38784
1.36535
1.3403
1.28924
1.22769
1.14927
1.07145
0.996182
0.942041
0.875683
0.819387
0.761817
0.722425
0.677175
0.647048
0.623051
0.604759
0.591345
0.579505
0.57105
0.567324
0.56513
0.563506
0.561861
0.560969
0.561083
0.561462
0.562191
0.562679
0.562883
0.562664
0.562392
0.561703
0.561237
0.561248
0.56187
0.562071
0.562184
0.561827
0.559176
0.55632
0.556033
0.556635
0.557986
0.559534
0.561346
0.563472
0.567192
0.571428
0.572973
0.570906
0.569472
0.56752
0.566347
0.567514
0.569529
0.57288
0.577823
0.581685
0.583642
0.584863
0.587223
0.58887
0.59282
0.59862
0.607686
0.610709
0.618045
0.621294
0.623012
0.633419
0.648031
0.669498
0.696253
0.726112
0.744926
0.756485
0.768051
0.779861
0.791561
0.804222
0.817219
0.827928
0.835705
0.843159
0.849787
0.856897
0.865196
0.873496
0.878026
0.882322
0.888881
0.896458
0.901586
0.90546
0.910214
0.915761
0.920898
0.925566
0.930239
0.934732
0.939186
0.943399
0.94759
0.951664
0.955581
0.959365
0.962982
0.966442
0.969759
0.972885
0.975883
0.97863
0.981258
0.9837
0.986091
0.988235
0.990352
0.99213
0.993984
0.995583
0.997239
0.998663
1.00034
1.00165
1.0033
1.00442
1.006
1.00691
1.00847
1.00917
1.01073
1.01126
1.01284
1.01325
1.01489
1.01514
1.01679
1.01684
1.01852
1.01836
1.02008
1.01972
1.0215
1.02089
1.02271
1.02187
1.02374
1.02266
1.02465
1.02333
1.02559
1.02408
1.02674
1.02514
1.02826
1.02706
1.03017
1.0302
1.03245
1.03313
1.03496
1.03578
1.0384
1.04287
1.04418
1.04537
1.04528
1.04585
1.04256
1.03988
1.03408
1.02948
1.02293
1.01955
1.01429
1.01299
1.00905
1.0099
1.00706
1.00991
1.00895
1.01288
1.01577
1.01981
1.02239
1.02575
1.02581
1.02245
1.01987
1.01583
1.01293
1.009
1.00996
1.00716
1.01001
1.0092
1.01316
1.01452
1.01983
1.02326
1.02981
1.03432
1.04004
1.04277
1.04605
1.04627
1.04732
1.04765
1.04784
1.04566
1.04481
1.04486
1.04458
1.04597
1.04637
1.04818
1.04863
1.05127
1.05152
1.0552
1.05539
1.05937
1.05975
1.06358
1.06426
1.06773
1.06874
1.0718
1.07308
1.07578
1.07727
1.07968
1.08127
1.08344
1.08505
1.08705
1.08861
1.09042
1.09192
1.09357
1.0949
1.09616
1.09743
1.09866
1.09999
1.10117
1.10217
1.10312
1.10403
1.10459
1.10514
1.10552
1.10581
1.10582
1.10594
1.10582
1.10562
1.10531
1.10488
1.10424
1.10362
1.10277
1.10186
1.10083
1.09958
1.09829
1.09696
1.09547
1.09389
1.09197
1.08997
1.0879
1.08564
1.08337
1.08095
1.07835
1.07529
1.07199
1.0686
1.06495
1.06117
1.05706
1.05288
1.0485
1.04394
1.03903
1.03395
1.02874
1.02325
1.01503
1.00714
1.0033
0.999411
0.99262
0.985543
0.978032
0.970671
0.96327
0.955996
0.947624
0.940281
0.932725
0.925837
0.918258
0.912323
0.90653
0.9022
0.898123
0.897241
0.895128
0.898881
0.902402
0.903962
0.912837
0.915261
0.921844
0.928986
0.935064
0.942948
0.948195
0.955173
0.961075
0.968772
0.9742
0.981119
0.986099
0.9922
0.997405
1.00419
1.00952
1.01554
1.02078
1.02666
1.03198
1.03831
1.04435
1.05084
1.05699
1.06375
1.07038
1.07761
1.08465
1.09234
1.09993
1.10824
1.11639
1.12478
1.13305
1.14222
1.15161
1.16182
1.17233
1.18368
1.19522
1.20749
1.22024
1.23417
1.24847
1.26371
1.27906
1.29554
1.31211
1.32903
1.34483
1.35904
1.37157
1.37344
1.3801
1.35551
1.32899
1.27539
1.21937
1.13946
1.0688
0.993582
0.94292
0.87712
0.824424
0.767929
0.729164
0.683762
0.653851
0.629421
0.611158
0.597367
0.585508
0.57627
0.572181
0.569552
0.567515
0.565449
0.56407
0.563855
0.563884
0.564431
0.564717
0.564848
0.564503
0.564157
0.563361
0.562759
0.562614
0.56311
0.563225
0.563321
0.562973
0.560361
0.557434
0.556945
0.557448
0.558663
0.560184
0.561915
0.564032
0.567674
0.571973
0.573642
0.571632
0.570135
0.568147
0.566879
0.567935
0.569871
0.573251
0.578243
0.582191
0.584084
0.585259
0.587605
0.58925
0.593122
0.598844
0.608162
0.611187
0.618282
0.621683
0.62336
0.633472
0.647993
0.669369
0.696189
0.726518
0.745648
0.757056
0.768512
0.780312
0.79195
0.804502
0.817531
0.828349
0.836088
0.843478
0.850106
0.857192
0.865365
0.873605
0.878227
0.882561
0.889013
0.896487
0.901671
0.905602
0.910347
0.915859
0.920991
0.925661
0.930327
0.934815
0.939254
0.943455
0.947634
0.951705
0.955624
0.959405
0.96302
0.966473
0.969778
0.972887
0.975868
0.978611
0.98125
0.983694
0.986073
0.988225
0.990314
0.992082
0.993909
0.995507
0.997161
0.998583
1.00024
1.00155
1.00317
1.00429
1.00585
1.00677
1.0083
1.00904
1.01056
1.01112
1.01265
1.01307
1.01465
1.01493
1.01652
1.01663
1.01823
1.01815
1.01976
1.01951
1.02112
1.02071
1.02231
1.02175
1.02333
1.02267
1.02425
1.02354
1.02519
1.02451
1.02635
1.02577
1.02792
1.02758
1.03006
1.03051
1.03283
1.03375
1.03571
1.03602
1.03865
1.04264
1.04421
1.04565
1.04536
1.04593
1.04256
1.03987
1.03396
1.02938
1.0228
1.01943
1.01412
1.01285
1.00889
1.00969
1.00686
1.00956
1.00873
1.01251
1.01553
1.01958
1.02222
1.02562
1.02555
1.02212
1.0195
1.01542
1.01248
1.00863
1.00955
1.00681
1.00971
1.00892
1.01298
1.0143
1.0197
1.02311
1.02972
1.03419
1.04
1.04269
1.04604
1.0462
1.04746
1.04788
1.04818
1.0464
1.04602
1.04609
1.04539
1.0459
1.04611
1.04764
1.04865
1.05076
1.05215
1.05448
1.05614
1.05861
1.06033
1.06288
1.06455
1.06714
1.06877
1.0713
1.07291
1.07534
1.07694
1.07925
1.08083
1.083
1.08456
1.08658
1.08808
1.08993
1.09137
1.09303
1.09434
1.09568
1.09692
1.09819
1.09945
1.10063
1.10163
1.10259
1.10348
1.10406
1.10463
1.10502
1.10532
1.10538
1.10549
1.10538
1.1052
1.10491
1.10449
1.10386
1.10326
1.10242
1.10152
1.10051
1.09928
1.098
1.09669
1.0952
1.09362
1.09172
1.08974
1.08766
1.08541
1.08314
1.08071
1.07811
1.07508
1.07182
1.06845
1.06482
1.06104
1.05695
1.05277
1.0484
1.04384
1.03896
1.03392
1.02874
1.02323
1.01512
1.0074
1.00352
0.999408
0.992688
0.985749
0.978304
0.970992
0.96364
0.956388
0.94811
0.940782
0.933311
0.926387
0.918949
0.912986
0.907331
0.90292
0.89917
0.898017
0.896123
0.899806
0.903222
0.904853
0.913497
0.916032
0.92258
0.929625
0.935666
0.943473
0.948736
0.955727
0.961584
0.969229
0.974642
0.981559
0.986561
0.992718
0.997926
1.00469
1.01002
1.01609
1.02134
1.02727
1.03264
1.03899
1.04503
1.05155
1.05775
1.06456
1.07123
1.0785
1.08558
1.09333
1.10095
1.10928
1.11745
1.12596
1.13438
1.14365
1.15314
1.16342
1.17402
1.18542
1.19707
1.20943
1.22226
1.23603
1.25017
1.26503
1.28011
1.2958
1.31161
1.32714
1.34197
1.35426
1.36528
1.36705
1.37365
1.35183
1.3287
1.28547
1.2322
1.16425
1.09492
1.02398
0.968704
0.90516
0.850477
0.793473
0.752121
0.705509
0.672416
0.645065
0.623486
0.607579
0.593823
0.58265