/*--------------------------------*- C++ -*----------------------------------*\
| =========                 |                                                 |
| \\      /  F ield         | OpenFOAM: The Open Source CFD Toolbox           |
|  \\    /   O peration     | Version:  v2006                                 |
|   \\  /    A nd           | Website:  www.openfoam.com                      |
|    \\/     M anipulation  |                                                 |
\*---------------------------------------------------------------------------*/
FoamFile
{
    version     2.0;
    format      ascii;
    class       volScalarField;
    location    "220";
    object      pPrime2Mean;
}
// * * * * * * * * * * * * * * * * * * * * * * * * * * * * * * * * * * * * * //

dimensions      [2 -2 -4 0 0 0 0];


internalField   nonuniform List<scalar> 
93840
(
0.000481942
0.000652704
0.000471556
0.00130535
0.000984788
0.00104857
0.000988608
0.00104765
0.00098215
0.00101775
0.000955093
0.000932796
0.000869324
0.000830544
0.00080759
0.000864325
0.00106493
0.00145327
0.00220384
0.00323294
0.00423797
0.00521488
0.00647575
0.00729047
0.00741645
0.00785419
0.00820353
0.00819148
0.00847323
0.00863561
0.00867186
0.00722084
0.00819818
0.00691218
0.00612565
0.00557627
0.00525473
0.00485353
0.00464216
0.0043208
0.00417562
0.00393955
0.00381772
0.00362651
0.00351518
0.00334642
0.00323792
0.003107
0.00301476
0.00289596
0.00280944
0.00272052
0.00263148
0.00253256
0.00246606
0.00242306
0.00235974
0.00229707
0.00221638
0.00215877
0.00210851
0.00205895
0.00199999
0.00196715
0.00192358
0.00188693
0.00184841
0.00182198
0.00178477
0.00175683
0.00172674
0.00169982
0.00167316
0.00165139
0.00162637
0.00160548
0.00158457
0.00156465
0.00154818
0.00153088
0.00151358
0.00149707
0.00148196
0.00146999
0.00145854
0.00144676
0.00143681
0.00142597
0.00141586
0.00140721
0.00140227
0.00139901
0.00139568
0.00139361
0.00139284
0.0013939
0.00139547
0.00139771
0.00140204
0.00140805
0.00141634
0.00142407
0.00143715
0.00147589
0.00150382
0.00149877
0.00149464
0.00151804
0.00154667
0.00158088
0.0016129
0.00164729
0.00168599
0.00173653
0.00178356
0.00183322
0.00189567
0.00195994
0.0020232
0.00204589
0.00205561
0.00204292
0.00200871
0.0019851
0.0018791
0.00173939
0.00169061
0.0015182
0.00146623
0.00136882
0.0012771
0.00120622
0.00113037
0.00108189
0.00102811
0.000983085
0.000932326
0.000899253
0.000861017
0.000836589
0.000808562
0.000787264
0.000758656
0.000741262
0.000721032
0.000708312
0.000692189
0.000683385
0.000668111
0.000659332
0.00064726
0.000642694
0.000633092
0.00063035
0.000622354
0.000622433
0.000616434
0.000618495
0.00061286
0.000616167
0.000616361
0.000627355
0.000628881
0.000639562
0.000641953
0.00065367
0.000654404
0.000668725
0.00067616
0.000696219
0.000698538
0.000713378
0.000707121
0.000729718
0.000734425
0.0007552
0.000740267
0.000738886
0.000673063
0.000705631
0.000653754
0.000801182
0.0013499
0.00258453
0.00433883
0.00581042
0.00668405
0.0067625
0.0051171
0.00324994
0.00275441
0.00280337
0.00300606
0.00295342
0.00228069
0.0023586
0.00228718
0.00226219
0.00214399
0.00209433
0.00204121
0.00201001
0.00197825
0.00194149
0.0019111
0.00189523
0.00189122
0.00190335
0.00191656
0.00193003
0.00194223
0.00196016
0.00197307
0.00199081
0.00200405
0.00202087
0.00202231
0.00202021
0.00202237
0.00201496
0.00199985
0.00200495
0.00205558
0.00210999
0.00217392
0.00224964
0.00234662
0.00252596
0.00292524
0.00350308
0.00392654
0.00419495
0.00449148
0.00475923
0.00508481
0.00547412
0.00591441
0.00655627
0.00757056
0.00861698
0.0091952
0.0096972
0.0103719
0.0111212
0.0120813
0.0133649
0.0152546
0.0170845
0.0175277
0.0172595
0.0180943
0.0178497
0.0169569
0.0154998
0.0127809
0.0108663
0.0101915
0.00926337
0.00832297
0.00736213
0.00596551
0.00390369
0.00183375
0.00109794
0.000999078
0.00098375
0.00100717
0.00106625
0.00117268
0.00130568
0.00135851
0.0014177
0.00152996
0.00169463
0.00178466
0.00185649
0.00195679
0.00211445
0.00226365
0.00241401
0.00256032
0.0027296
0.00291215
0.0031243
0.00334121
0.00355754
0.00374437
0.00394012
0.00412061
0.00432056
0.00449356
0.00468378
0.00487129
0.0050873
0.00530339
0.00554312
0.00577785
0.00602202
0.00624938
0.00647026
0.00668246
0.00688788
0.00706169
0.00722586
0.00737805
0.00751728
0.00765037
0.00775554
0.00785423
0.00790943
0.0079742
0.00797809
0.00801558
0.00799074
0.00800636
0.00796131
0.00797316
0.00789896
0.00788365
0.00779015
0.00776982
0.00766519
0.00765044
0.00755419
0.0075414
0.00746868
0.00749245
0.00747931
0.00753168
0.00758882
0.00766422
0.00781079
0.00786396
0.00816419
0.00805578
0.00877913
0.00895799
0.00888199
0.00882236
0.00872313
0.0083847
0.00799095
0.00777639
0.00750483
0.00743375
0.00655291
0.00526884
0.00424816
0.00323879
0.00220495
0.0014497
0.00106144
0.000861709
0.000803932
0.000828479
0.000864062
0.000930203
0.000947351
0.00101809
0.000975469
0.00104256
0.000978033
0.00104984
0.000985556
0.00131579
0.000473184
0.000653986
0.000482724
0.000482574
0.000653884
0.000473093
0.00131516
0.000985229
0.00104911
0.000977435
0.00104213
0.000974837
0.00101785
0.000946765
0.000930248
0.000864234
0.000829135
0.00080575
0.000864975
0.00106571
0.00144963
0.00218673
0.00317094
0.00412487
0.00506593
0.00627016
0.00705756
0.00717898
0.00748366
0.00772359
0.0079419
0.00802769
0.00792442
0.00785154
0.00754678
0.00717994
0.00647103
0.00602157
0.00552874
0.00523814
0.00485637
0.00465144
0.00434414
0.00419486
0.00395585
0.00383198
0.00363667
0.00352551
0.00335801
0.00325327
0.00311775
0.00302505
0.00290714
0.00282029
0.00272648
0.00264073
0.00254827
0.00247954
0.00242737
0.00236165
0.00230048
0.0022244
0.00216724
0.00211374
0.00206458
0.00200754
0.00197232
0.00192805
0.00189172
0.00185264
0.00182509
0.00178809
0.00175988
0.00172923
0.00170236
0.0016754
0.00165328
0.00162821
0.00160708
0.00158613
0.00156611
0.00154927
0.00153173
0.0015145
0.001498
0.00148312
0.00147078
0.00145925
0.00144745
0.00143735
0.00142655
0.00141642
0.00140779
0.00140282
0.00139932
0.00139592
0.00139413
0.00139323
0.00139409
0.00139587
0.00139803
0.00140222
0.00140816
0.00141641
0.0014241
0.00143735
0.00147557
0.00150287
0.00149825
0.00149481
0.00151789
0.00154629
0.00158043
0.00161239
0.00164668
0.00168537
0.00173552
0.00178229
0.00183168
0.00189392
0.00195782
0.00202069
0.00204326
0.00205303
0.0020395
0.00200572
0.0019809
0.00187522
0.00173611
0.00168709
0.00151575
0.00146346
0.00136619
0.00127502
0.0012043
0.00112883
0.00108032
0.00102658
0.00098171
0.00093117
0.000898167
0.000859997
0.000835577
0.000807442
0.000786206
0.000757747
0.000740368
0.00072008
0.000707353
0.000691133
0.000682204
0.000666934
0.000658176
0.000645966
0.000641345
0.000631549
0.000628789
0.000620601
0.000620465
0.000614271
0.000616102
0.000610469
0.000613785
0.000613388
0.000623429
0.000624307
0.000634271
0.000635608
0.000646391
0.000646471
0.0006594
0.000663936
0.000681095
0.00067903
0.000689518
0.000688595
0.000706711
0.000687098
0.000677613
0.000648869
0.000657929
0.000643487
0.000617738
0.000606584
0.000739333
0.00114835
0.00156769
0.00255409
0.00366022
0.00440425
0.00514731
0.00435977
0.00298009
0.00259454
0.00273737
0.00296168
0.00288531
0.00223921
0.00234686
0.00228786
0.00226636
0.00214304
0.0020963
0.00204554
0.00201211
0.00197891
0.00194219
0.00191083
0.00189587
0.00189225
0.00190329
0.00191615
0.00192978
0.00194175
0.00195948
0.00197235
0.00198979
0.00200326
0.00202008
0.00202141
0.00201947
0.00202182
0.00201428
0.00199856
0.00200372
0.002055
0.00210988
0.00217369
0.00224915
0.00234616
0.0025255
0.00292501
0.00350472
0.00392414
0.00419073
0.00448668
0.00475393
0.0050802
0.00546962
0.00590904
0.00655181
0.00756586
0.00861
0.00918442
0.00968542
0.0103597
0.0111094
0.0120695
0.0133539
0.0152406
0.0170704
0.0175254
0.0172546
0.0180963
0.0178527
0.016948
0.0154942
0.0127731
0.0108522
0.0101769
0.00925155
0.00831481
0.00735218
0.00595253
0.00389023
0.00181977
0.00108972
0.000997759
0.000984164
0.00100845
0.00106816
0.00117363
0.00130477
0.0013596
0.0014214
0.00153297
0.00169434
0.0017847
0.00185972
0.00196093
0.00211688
0.00226539
0.00241624
0.00256278
0.002732
0.00291442
0.00312674
0.00334354
0.0035605
0.00374901
0.00394536
0.00412435
0.00432022
0.00449109
0.00468097
0.00486798
0.00508671
0.00531053
0.0055523
0.00578314
0.00602469
0.00625094
0.00647152
0.00668198
0.0068855
0.00705918
0.00722409
0.00737934
0.00751928
0.00765196
0.00775631
0.00785336
0.00790852
0.00797426
0.00797951
0.00802058
0.00799646
0.00801472
0.00797127
0.00798425
0.00791259
0.00790226
0.00781358
0.00780069
0.00769892
0.00769317
0.00759993
0.00760003
0.00753261
0.00757793
0.00756958
0.00765466
0.00772075
0.00783993
0.00799233
0.00813851
0.00843305
0.00847195
0.00935576
0.00895624
0.00944088
0.00912879
0.00905483
0.00874099
0.00878288
0.00821267
0.00776434
0.0076735
0.00674534
0.00538492
0.00433093
0.00329309
0.00221879
0.0014514
0.0010602
0.000861128
0.000805654
0.000830114
0.000869158
0.000932966
0.000954794
0.0010177
0.000981899
0.0010477
0.000988199
0.00104871
0.000984757
0.00130576
0.000471679
0.000652832
0.0004818
0.000482007
0.00065252
0.000471392
0.00130473
0.000984718
0.00104827
0.000988433
0.00104747
0.00098202
0.00101753
0.000955148
0.000932802
0.000869675
0.000831232
0.00080974
0.000868247
0.0010701
0.00145422
0.0021811
0.00314429
0.00409214
0.00501308
0.00614737
0.00687571
0.00701203
0.00738899
0.0075811
0.0076517
0.00770306
0.00767679
0.00732466
0.00714683
0.0072015
0.00611367
0.00601977
0.00539712
0.00523136
0.00479973
0.00464791
0.00431946
0.00419474
0.0039453
0.00383201
0.00363254
0.00352531
0.0033571
0.00325416
0.00311922
0.00302652
0.00290926
0.00282229
0.00272855
0.00264215
0.00255176
0.00248252
0.00242961
0.00236272
0.00230168
0.00222584
0.00216922
0.0021153
0.00206628
0.0020092
0.00197396
0.00192934
0.00189328
0.00185411
0.00182616
0.00178909
0.00176111
0.00173038
0.00170334
0.00167642
0.00165419
0.00162907
0.00160803
0.00158694
0.00156687
0.00155016
0.0015324
0.0015152
0.00149864
0.00148376
0.0014715
0.00145977
0.00144785
0.00143759
0.00142695
0.00141689
0.00140833
0.0014032
0.00139963
0.00139625
0.00139412
0.00139324
0.00139423
0.00139586
0.001398
0.00140237
0.0014084
0.00141647
0.00142415
0.00143734
0.0014756
0.00150279
0.00149782
0.00149455
0.00151792
0.00154603
0.00157998
0.00161176
0.00164595
0.00168443
0.00173479
0.00178094
0.00183032
0.00189268
0.0019562
0.00201907
0.00204115
0.0020506
0.00203745
0.00200233
0.00198002
0.00187476
0.0017358
0.00168665
0.00151581
0.00146332
0.00136619
0.00127501
0.00120437
0.00112892
0.00108037
0.00102658
0.00098171
0.000931229
0.000898163
0.000859994
0.00083544
0.000807227
0.000785841
0.000757427
0.000739968
0.000719636
0.000706839
0.000690415
0.000681347
0.000666016
0.00065727
0.000644983
0.000640194
0.000630312
0.000627417
0.000619148
0.000618836
0.000612609
0.00061427
0.000608693
0.000611827
0.000611168
0.000620777
0.000621335
0.000630847
0.000631976
0.000642471
0.00064271
0.000655327
0.000659395
0.000675015
0.000674674
0.000687403
0.000682113
0.000696222
0.000695227
0.000704333
0.000698334
0.000664606
0.000649751
0.000631294
0.000603972
0.000737126
0.00106072
0.00161444
0.00233278
0.0034742
0.00415204
0.00478241
0.00408795
0.00296913
0.00254983
0.00259197
0.00279202
0.00278466
0.00221417
0.00233276
0.00225762
0.00223614
0.00212925
0.00207817
0.0020286
0.00200582
0.0019743
0.00193644
0.00190775
0.00189193
0.00188819
0.00190163
0.00191547
0.00192859
0.00194061
0.00195878
0.00197174
0.00198957
0.0020027
0.00202037
0.00202218
0.00201995
0.0020226
0.00201546
0.00199986
0.00200469
0.0020553
0.00210926
0.00217328
0.00224922
0.00234451
0.00252234
0.00292421
0.00350595
0.00392852
0.00419174
0.00448712
0.00475398
0.00507938
0.00547087
0.00591105
0.00655134
0.00756891
0.00862045
0.00919185
0.0096893
0.010362
0.0111098
0.01207
0.0133552
0.0152448
0.0170936
0.0175421
0.0172345
0.0180737
0.0178598
0.016979
0.0155418
0.0128161
0.0108912
0.0102059
0.00926499
0.00831654
0.00736342
0.005979
0.00391997
0.00183658
0.00109313
0.000995861
0.000983705
0.00100849
0.0010684
0.00117397
0.00130501
0.00136037
0.00142245
0.00153358
0.00169434
0.00178533
0.00186091
0.00196201
0.00211776
0.00226635
0.00241721
0.00256315
0.00273213
0.00291502
0.00312762
0.00334472
0.00356113
0.00374825
0.00394367
0.00412298
0.00432101
0.00449384
0.00468516
0.00487191
0.00508763
0.00530439
0.00554454
0.0057774
0.00601919
0.00624554
0.00646586
0.00667513
0.00687899
0.00705539
0.00722115
0.00737592
0.00751732
0.00765019
0.00775504
0.00785373
0.00790945
0.00797468
0.00798352
0.00802358
0.0080035
0.00802188
0.00797878
0.00798946
0.00792084
0.00791312
0.00782777
0.00781529
0.00772258
0.00771456
0.00763426
0.00763636
0.00758855
0.00762115
0.00763845
0.00770125
0.00780085
0.00788354
0.00808327
0.00815532
0.00847958
0.00854147
0.0090569
0.0093803
0.00951296
0.00940626
0.00895835
0.00880905
0.00855326
0.00817666
0.0080175
0.00798046
0.00692862
0.00550541
0.00439746
0.0033241
0.00223244
0.00145145
0.00105686
0.000858021
0.000801932
0.000827772
0.000863887
0.000930339
0.000947587
0.00101816
0.000975907
0.00104274
0.000978432
0.00105048
0.000985797
0.00131645
0.000473284
0.000654143
0.000482846
0.000482513
0.000653792
0.000473029
0.00131465
0.000985002
0.00104848
0.000977167
0.00104202
0.000974495
0.00101808
0.000946558
0.000930075
0.000864253
0.000829729
0.000807465
0.00086817
0.00107025
0.00145065
0.00217066
0.00310285
0.00401356
0.00489996
0.00601403
0.00673773
0.00686897
0.00716981
0.00730973
0.00742677
0.00742542
0.00729901
0.00714442
0.00676062
0.00661248
0.00606687
0.00579676
0.00536438
0.00513712
0.00478975
0.00460852
0.00432305
0.00418041
0.00394857
0.0038269
0.0036352
0.00352492
0.00336206
0.00325933
0.00312452
0.00303163
0.00291566
0.00282861
0.00273313
0.00264937
0.00256159
0.00249124
0.00243289
0.00236564
0.00230472
0.00223216
0.00217555
0.00212003
0.00207108
0.00201521
0.00197848
0.00193346
0.00189729
0.00185779
0.00182909
0.00179229
0.0017638
0.00173285
0.00170583
0.00167852
0.00165597
0.00163093
0.00160962
0.00158852
0.00156827
0.00155116
0.0015335
0.0015162
0.00149981
0.00148466
0.00147227
0.00146053
0.00144858
0.00143842
0.00142756
0.00141753
0.00140884
0.00140364
0.00139995
0.00139654
0.00139469
0.00139376
0.00139462
0.00139623
0.0013984
0.00140233
0.00140822
0.00141626
0.00142399
0.00143784
0.00147555
0.0015014
0.00149737
0.00149481
0.00151747
0.00154539
0.00157938
0.00161107
0.00164513
0.001684
0.00173339
0.00177973
0.00182856
0.00189074
0.0019542
0.00201652
0.0020388
0.0020483
0.00203343
0.00200033
0.00197393
0.00186869
0.00173026
0.00168124
0.00151146
0.00145884
0.00136199
0.00127161
0.00120118
0.00112626
0.00107774
0.0010241
0.000979485
0.000929295
0.000896393
0.000858349
0.000833916
0.000805662
0.000784423
0.000756239
0.000738954
0.00071856
0.000705792
0.000689344
0.000680262
0.000664957
0.000656244
0.000643924
0.000639089
0.000629112
0.000626135
0.000617748
0.00061734
0.000610824
0.000612405
0.000606714
0.000609873
0.000608701
0.000617554
0.000617579
0.000626557
0.000626882
0.000636582
0.000635892
0.000647224
0.000648901
0.000662625
0.000658992
0.00066826
0.000662463
0.00067595
0.000656949
0.000670478
0.000640457
0.000662663
0.000595554
0.000634366
0.000646214
0.000744216
0.000932614
0.0014659
0.00183677
0.00264102
0.0031965
0.00389332
0.0035742
0.00273564
0.00241904
0.00252696
0.00275254
0.00271498
0.00216245
0.00229629
0.00223929
0.00223208
0.00212074
0.00208311
0.00203394
0.00200995
0.00197314
0.00193865
0.00190639
0.0018946
0.00189253
0.00190207
0.001915
0.00192891
0.00194012
0.00195757
0.00197024
0.00198679
0.00200054
0.00201803
0.00201962
0.00201784
0.00202118
0.00201326
0.00199505
0.00199976
0.00205271
0.00210883
0.00217274
0.00224769
0.00234271
0.00251966
0.00292422
0.00351119
0.0039296
0.00418959
0.00448266
0.00474846
0.00507562
0.00546612
0.00590396
0.00654634
0.0075681
0.00862212
0.00918714
0.00967875
0.0103507
0.0110991
0.0120591
0.013342
0.0152365
0.0170922
0.0175524
0.0172376
0.0180816
0.0178872
0.0170108
0.0155949
0.0128617
0.01091
0.0102171
0.00926994
0.00832214
0.0073717
0.00599191
0.00393743
0.00183207
0.00107954
0.00099078
0.000982807
0.00100927
0.00107008
0.001175
0.00130443
0.00136136
0.00142575
0.00153658
0.00169478
0.00178585
0.00186405
0.00196599
0.00212036
0.00226864
0.00242009
0.00256637
0.00273508
0.00291767
0.0031312
0.00334892
0.00356558
0.00375329
0.00394846
0.00412606
0.00432028
0.0044913
0.00468256
0.00486976
0.00508863
0.00531357
0.00555457
0.00578416
0.00602371
0.00624809
0.00646889
0.00667794
0.00688053
0.00705614
0.00722456
0.00738142
0.0075228
0.00765605
0.00776073
0.00785967
0.00791724
0.00798582
0.00799689
0.00804138
0.00802297
0.00804675
0.00800671
0.00802295
0.00795788
0.00795752
0.00787674
0.00787445
0.00778502
0.00779103
0.00771247
0.00773332
0.00768467
0.00774723
0.00775673
0.00786309
0.00794648
0.00809494
0.00826581
0.00842616
0.00872982
0.00882315
0.00934492
0.0093084
0.0096251
0.00939041
0.00922745
0.00905757
0.00902808
0.00849988
0.00825199
0.0081456
0.00706664
0.00561038
0.004454
0.00335754
0.00224017
0.001452
0.00105544
0.00085755
0.000803515
0.00082937
0.000868761
0.000932892
0.000954953
0.00101789
0.000981786
0.00104796
0.000988337
0.00104915
0.000984734
0.00130631
0.000471835
0.00065298
0.000481707
0.000482084
0.000652353
0.00047124
0.00130418
0.000984681
0.001048
0.000988426
0.00104732
0.000982159
0.00101716
0.000955246
0.000932641
0.000869982
0.000832064
0.000811831
0.000871781
0.00107463
0.00145556
0.00216529
0.00307684
0.00396945
0.00483845
0.00589174
0.00657461
0.00671787
0.00706746
0.00718371
0.007212
0.00719572
0.00708768
0.00684237
0.00661867
0.00649883
0.00585568
0.00577035
0.0052306
0.00512888
0.00471192
0.0046052
0.00428001
0.00417895
0.00392517
0.00382638
0.00362275
0.00352431
0.00335602
0.00325924
0.00312252
0.00303186
0.00291542
0.00282948
0.00273394
0.00265016
0.00256401
0.00249331
0.00243499
0.00236646
0.00230615
0.00223319
0.00217793
0.00212152
0.0020731
0.00201689
0.00198045
0.00193476
0.00189913
0.00185922
0.00183061
0.00179349
0.00176514
0.00173417
0.00170706
0.00167993
0.00165729
0.00163214
0.00161071
0.00158964
0.00156933
0.00155212
0.00153438
0.00151712
0.00150056
0.00148542
0.00147295
0.00146097
0.00144905
0.00143871
0.00142804
0.00141812
0.00140939
0.00140433
0.00140046
0.00139696
0.00139465
0.00139359
0.00139449
0.00139615
0.00139852
0.00140266
0.00140869
0.00141665
0.00142404
0.00143723
0.00147543
0.00150151
0.00149662
0.00149453
0.00151784
0.00154506
0.0015787
0.00161014
0.00164405
0.00168232
0.0017325
0.00177746
0.00182663
0.00188895
0.00195185
0.00201439
0.00203594
0.00204508
0.0020314
0.00199539
0.0019746
0.00187008
0.00173176
0.00168231
0.00151311
0.00146001
0.00136319
0.00127263
0.00120221
0.00112718
0.00107857
0.00102474
0.000980039
0.000929867
0.000896815
0.000858735
0.000834056
0.00080569
0.00078431
0.000756082
0.00073866
0.000718072
0.000705182
0.000688696
0.000679362
0.00066399
0.000655191
0.000642809
0.000637856
0.000627806
0.000624659
0.0006163
0.000615659
0.000609161
0.000610506
0.000604852
0.000607847
0.000606534
0.00061491
0.000614709
0.000623349
0.000623478
0.000633006
0.000632512
0.000643546
0.000645245
0.000657968
0.000655746
0.000665839
0.000659579
0.000668466
0.000662893
0.00066373
0.000653219
0.000625253
0.000613507
0.00062215
0.000617323
0.000708342
0.000895942
0.00130699
0.00166747
0.00253359
0.00301307
0.00366675
0.00336571
0.00272025
0.00237674
0.00240297
0.00256766
0.00258556
0.00212415
0.00228037
0.00220176
0.00218946
0.00210044
0.00205758
0.00202703
0.00200517
0.00197257
0.00193362
0.00190551
0.00188871
0.00189109
0.0018985
0.0019138
0.00192668
0.00194035
0.0019569
0.00196931
0.00198643
0.00199971
0.00201865
0.0020212
0.00201884
0.00202258
0.00201576
0.00199827
0.00200223
0.00205346
0.0021076
0.00217217
0.00224805
0.00234134
0.00251518
0.00292333
0.00351883
0.00393664
0.00419244
0.0044844
0.00475028
0.00507597
0.00546955
0.00590887
0.00655068
0.007579
0.00864294
0.00919962
0.00968984
0.0103599
0.0111068
0.0120661
0.0133586
0.0152608
0.0171382
0.0175905
0.017232
0.0180757
0.0179185
0.0170712
0.0156834
0.0129467
0.0109725
0.01027
0.00930402
0.00833764
0.00739495
0.00603338
0.00398909
0.0018526
0.00107931
0.000987035
0.000982029
0.00100948
0.00107067
0.00117544
0.00130483
0.00136256
0.0014272
0.00153696
0.00169428
0.00178647
0.00186565
0.00196739
0.00212149
0.00227014
0.00242175
0.00256749
0.0027359
0.00291909
0.00313305
0.00335096
0.00356676
0.00375297
0.00394725
0.00412525
0.00432137
0.00449501
0.00468788
0.00487469
0.00509225
0.00531126
0.00555105
0.00578141
0.00602015
0.00624499
0.00646506
0.00667264
0.00687585
0.00705319
0.00722216
0.00737879
0.00752103
0.00765458
0.00776005
0.00786042
0.00791928
0.00798864
0.00800386
0.00804821
0.00803433
0.00805902
0.00802027
0.00803509
0.00797375
0.00797701
0.00790113
0.00790228
0.00782308
0.00783111
0.00776447
0.00778911
0.00775501
0.00781322
0.00783755
0.0079345
0.00803289
0.0081665
0.00833951
0.008487
0.00873733
0.00890524
0.00919842
0.00942147
0.00949843
0.00948549
0.00913668
0.00907497
0.00893291
0.00839138
0.00849498
0.0084345
0.00727511
0.00573435
0.0045242
0.00338973
0.00225273
0.00145142
0.00105268
0.000854727
0.000800101
0.000827171
0.000863891
0.000930355
0.000947798
0.00101833
0.000976157
0.00104293
0.000978681
0.00105101
0.000986009
0.00131704
0.000473366
0.000654277
0.00048297
0.000482335
0.000653663
0.000472949
0.00131408
0.000984704
0.00104784
0.000976879
0.00104183
0.000974172
0.00101805
0.000946251
0.000930001
0.000864393
0.000830225
0.000809356
0.000871493
0.00107481
0.00145233
0.0021549
0.00303763
0.00390277
0.00474771
0.00576673
0.00643018
0.00659456
0.0068666
0.00695296
0.00700586
0.00696496
0.0068229
0.00667003
0.00632674
0.00618064
0.00575853
0.00555863
0.00518712
0.00500709
0.00469369
0.00453897
0.00427579
0.0041439
0.00392492
0.00380738
0.00362356
0.00351538
0.00335891
0.00325805
0.00312665
0.00303349
0.00292057
0.00283374
0.00273862
0.00265632
0.00257163
0.00250018
0.0024384
0.00237019
0.00230954
0.00223951
0.00218323
0.00212661
0.00207783
0.00202295
0.00198473
0.00193941
0.00190332
0.00186331
0.00183377
0.00179692
0.00176803
0.00173682
0.00170969
0.00168228
0.00165908
0.00163396
0.0016124
0.00159105
0.00157094
0.00155333
0.00153549
0.00151825
0.00150165
0.00148665
0.00147421
0.00146217
0.00145001
0.00143972
0.00142873
0.00141874
0.00140999
0.00140451
0.00140073
0.00139745
0.00139541
0.00139443
0.00139515
0.00139669
0.00139853
0.00140251
0.00140823
0.00141608
0.00142372
0.00143858
0.00147552
0.0014993
0.00149587
0.00149482
0.00151694
0.00154406
0.00157787
0.00160918
0.00164294
0.00168207
0.00173054
0.0017762
0.00182443
0.00188664
0.00194972
0.00201145
0.00203341
0.00204258
0.00202622
0.00199394
0.00196639
0.0018616
0.00172395
0.00167487
0.00150701
0.00145385
0.00135753
0.00126803
0.00119792
0.00112364
0.00107512
0.00102157
0.000977227
0.000927427
0.000894621
0.000856708
0.000832221
0.000803827
0.00078264
0.000754591
0.000737387
0.000716842
0.000704016
0.0006874
0.000678114
0.000662726
0.000654089
0.000641549
0.000636493
0.000626261
0.000623154
0.000614549
0.000613845
0.000607056
0.000608239
0.000602416
0.000605325
0.000603419
0.00061114
0.000610257
0.000618247
0.000617462
0.000625983
0.000624341
0.000634003
0.000633299
0.000644042
0.000638625
0.000645977
0.000636712
0.000645717
0.000625533
0.000634611
0.000602983
0.000622936
0.000569569
0.00060691
0.000591811
0.000680249
0.000816
0.00119988
0.00142084
0.00198094
0.00240797
0.0029885
0.00291956
0.00247361
0.00223805
0.00231173
0.00250941
0.00250693
0.00206822
0.00222273
0.00216468
0.0021802
0.00208978
0.00206217
0.00201427
0.00199659
0.00196701
0.00192825
0.00190037
0.00188571
0.00189039
0.00189929
0.00191461
0.00192717
0.00193903
0.00195557
0.00196809
0.00198318
0.00199656
0.00201604
0.00201858
0.00201669
0.00202108
0.00201305
0.00199117
0.00199479
0.002049
0.00210708
0.00217102
0.00224579
0.00233811
0.00250961
0.00292113
0.0035312
0.00394022
0.00419238
0.00448052
0.00474479
0.00507186
0.00546482
0.0059003
0.00654346
0.00758284
0.00865262
0.00920079
0.00967954
0.0103487
0.0110968
0.0120544
0.0133405
0.0152545
0.0171489
0.0176165
0.017241
0.0180863
0.0179674
0.0171447
0.0157938
0.0130572
0.0110352
0.0103187
0.0093324
0.00835854
0.00742456
0.00607668
0.00404489
0.00186816
0.0010682
0.000980233
0.000980491
0.00101018
0.00107232
0.00117629
0.00130421
0.00136374
0.00143045
0.0015398
0.00169486
0.00178719
0.00186869
0.0019711
0.00212404
0.0022726
0.00242483
0.00257084
0.002739
0.00292191
0.00313684
0.00335513
0.00357059
0.00375681
0.00395051
0.00412688
0.00431971
0.00449219
0.00468571
0.00487351
0.00509381
0.00531826
0.00555738
0.00578445
0.00602207
0.00624579
0.00646642
0.00667387
0.00687632
0.00705474
0.00722525
0.00738386
0.0075263
0.00766068
0.00776634
0.00786945
0.00793015
0.00800344
0.00802213
0.00807135
0.00805929
0.00808971
0.00805482
0.00807666
0.00801974
0.00803096
0.00795937
0.00797157
0.00789503
0.00791846
0.00785266
0.00789822
0.00786128
0.00794822
0.00796197
0.00809571
0.00817262
0.00834991
0.00849512
0.00868525
0.00890736
0.00907124
0.00935529
0.00943395
0.0095817
0.00949822
0.00929053
0.00922502
0.00922117
0.00883546
0.00869469
0.0086137
0.00746881
0.00585992
0.00458997
0.00342514
0.00226372
0.00145418
0.00105117
0.0008541
0.000801658
0.000828659
0.000868665
0.000933064
0.000954935
0.00101798
0.000981965
0.00104828
0.00098838
0.00104948
0.000984845
0.00130685
0.000471983
0.000653154
0.000481593
0.000482244
0.000652151
0.000471087
0.00130358
0.000984657
0.00104774
0.000988365
0.00104726
0.00098205
0.00101701
0.000955291
0.000932614
0.000870293
0.000832692
0.000813998
0.000875366
0.00107981
0.00145786
0.0021503
0.00301354
0.00385747
0.00468065
0.00564604
0.00626798
0.00646321
0.00674632
0.00680999
0.00681078
0.00676505
0.00662509
0.00644515
0.00621276
0.00605149
0.00561235
0.00550711
0.00507111
0.00498651
0.00461164
0.00453018
0.00422193
0.00414013
0.00389069
0.00380546
0.00360282
0.00351379
0.00334698
0.003257
0.00312038
0.00303305
0.0029179
0.00283357
0.00273835
0.00265651
0.0025735
0.00250187
0.00244033
0.00237057
0.00231119
0.00224031
0.00218594
0.00212781
0.00208031
0.00202461
0.00198728
0.00194071
0.00190547
0.00186491
0.00183559
0.00179837
0.00176975
0.00173835
0.00171124
0.00168365
0.00166065
0.00163535
0.00161391
0.00159256
0.00157214
0.00155466
0.00153667
0.00151947
0.00150257
0.00148758
0.00147465
0.00146255
0.00145058
0.00144009
0.00142935
0.00141949
0.00141098
0.00140555
0.00140149
0.00139776
0.00139556
0.00139425
0.00139489
0.00139648
0.00139878
0.00140301
0.00140893
0.00141659
0.0014237
0.00143738
0.00147535
0.0014997
0.00149471
0.0014942
0.00151756
0.00154373
0.00157703
0.00160802
0.00164159
0.00167971
0.00172956
0.00177318
0.00182205
0.00188453
0.00194658
0.00200921
0.00203009
0.00203871
0.0020243
0.00198742
0.0019675
0.00186438
0.00172655
0.00167693
0.00150961
0.00145589
0.00135945
0.00126968
0.00119949
0.00112504
0.00107633
0.00102254
0.000978056
0.00092824
0.000895222
0.000857266
0.000832495
0.000803965
0.000782492
0.000754519
0.000737065
0.000716455
0.000703491
0.000686774
0.00067726
0.000661797
0.000652965
0.000640474
0.000635227
0.000624937
0.000621685
0.00061306
0.000612162
0.000605292
0.000606354
0.000600517
0.000603266
0.000601203
0.000608501
0.00060744
0.00061507
0.00061423
0.000622562
0.000621141
0.00063046
0.000630009
0.00063992
0.000635866
0.000643119
0.000635426
0.000639617
0.000630291
0.000625692
0.000611422
0.000590996
0.000577778
0.000594751
0.000581341
0.000658691
0.000794288
0.00109094
0.00127896
0.00194646
0.00227145
0.0028505
0.00276038
0.00244885
0.00219254
0.00220987
0.00233385
0.00236809
0.00201796
0.00220115
0.00212223
0.00212888
0.00206341
0.00202425
0.0020041
0.00200126
0.00196572
0.00193284
0.00189977
0.00188729
0.00188731
0.00190079
0.00191254
0.00192751
0.00193803
0.00195534
0.00196642
0.00198407
0.00199654
0.00201777
0.00202056
0.00201892
0.00202257
0.00201621
0.00199544
0.00199709
0.00205006
0.00210471
0.00217065
0.00224358
0.00233551
0.0025022
0.00291948
0.00354385
0.00394909
0.0041957
0.00448225
0.00474713
0.00507198
0.00546977
0.00590858
0.00655068
0.00760062
0.00868721
0.00921888
0.00969894
0.0103649
0.0111124
0.0120694
0.0133742
0.0152992
0.0172206
0.0176741
0.0172543
0.0180994
0.0180301
0.0172429
0.0159306
0.0131903
0.0111251
0.0103974
0.00938918
0.00838777
0.00746026
0.00613557
0.00412125
0.00189383
0.00106265
0.000974538
0.000979234
0.0010107
0.00107337
0.00117703
0.00130484
0.00136526
0.00143235
0.00154024
0.00169399
0.00178778
0.00187053
0.00197276
0.00212554
0.00227461
0.002427
0.00257247
0.00274027
0.0029236
0.00313882
0.00335691
0.00357119
0.00375589
0.00394901
0.00412577
0.00431992
0.00449468
0.00468956
0.00487699
0.00509624
0.00531607
0.00555336
0.00578117
0.00601819
0.0062418
0.00646226
0.00666891
0.0068722
0.00705159
0.00722284
0.00738158
0.0075254
0.00765949
0.00776675
0.00787043
0.00793418
0.00800891
0.00803172
0.00808202
0.00807464
0.00810623
0.00807458
0.0080956
0.00804341
0.0080574
0.00799277
0.00800802
0.00794245
0.00796773
0.00791559
0.00796189
0.00793994
0.00802198
0.00804949
0.00817552
0.00825939
0.00842635
0.00856392
0.00875128
0.00892942
0.0091231
0.00929968
0.00946873
0.00950613
0.00953685
0.00926424
0.00921935
0.0091604
0.00885069
0.00879525
0.00886394
0.00773549
0.00601472
0.00467116
0.00346048
0.00227502
0.00145314
0.00104821
0.000851344
0.000798032
0.000826533
0.000863764
0.000930479
0.000948145
0.00101839
0.000976272
0.00104305
0.000979147
0.00105169
0.000986239
0.00131765
0.000473461
0.000654403
0.000483112
0.00048222
0.000653494
0.000472862
0.00131347
0.00098447
0.00104716
0.000976453
0.00104151
0.000973867
0.001018
0.000945864
0.000929886
0.00086446
0.000830968
0.000811293
0.00087511
0.00107991
0.00145491
0.00214046
0.00297693
0.00379951
0.00460553
0.00554347
0.00613738
0.00633949
0.00656695
0.00661516
0.00662518
0.00657472
0.00641403
0.00627576
0.00597728
0.00583928
0.00549306
0.00533143
0.0050129
0.00486253
0.00458362
0.00444966
0.00421
0.00408964
0.00388564
0.00377504
0.0036013
0.00349712
0.0033482
0.00324976
0.00312288
0.00303087
0.00292167
0.00283544
0.00274192
0.00266099
0.00257921
0.00250731
0.00244316
0.00237494
0.00231438
0.00224628
0.00219078