/*--------------------------------*- C++ -*----------------------------------*\
| =========                 |                                                 |
| \\      /  F ield         | OpenFOAM: The Open Source CFD Toolbox           |
|  \\    /   O peration     | Version:  v2006                                 |
|   \\  /    A nd           | Website:  www.openfoam.com                      |
|    \\/     M anipulation  |                                                 |
\*---------------------------------------------------------------------------*/
FoamFile
{
    version     2.0;
    format      ascii;
    class       volScalarField;
    location    "220";
    object      rho;
}
// * * * * * * * * * * * * * * * * * * * * * * * * * * * * * * * * * * * * * //

dimensions      [1 -3 0 0 0 0 0];


internalField   nonuniform List<scalar> 
93840
(
1.01817
1.03177
1.04866
1.08237
1.0459
1.08412
1.01936
1.02829
0.998472
0.990315
0.976013
0.967569
0.966337
0.968787
0.971999
0.976013
0.959334
0.951138
0.986498
0.973598
0.903846
0.85522
0.897666
0.88485
0.841787
0.863995
0.865736
0.844119
0.85292
0.848365
0.836448
0.866393
0.830686
0.852697
0.857162
0.873052
0.872325
0.886237
0.884436
0.897704
0.894933
0.906063
0.903587
0.912233
0.911139
0.919083
0.91891
0.924892
0.925108
0.930675
0.931193
0.935267
0.93648
0.941112
0.94212
0.943618
0.944946
0.947364
0.949861
0.952143
0.952685
0.954568
0.956214
0.957126
0.957811
0.958405
0.959172
0.959473
0.959721
0.960307
0.96004
0.960236
0.96025
0.959793
0.959329
0.95915
0.958249
0.957729
0.956269
0.955522
0.954202
0.953179
0.951597
0.949948
0.947852
0.946022
0.943825
0.941621
0.939457
0.936924
0.933953
0.930625
0.9274
0.923797
0.920087
0.915995
0.911806
0.907434
0.902764
0.897652
0.89229
0.88688
0.881166
0.872048
0.863223
0.859824
0.856447
0.849149
0.841272
0.83312
0.825253
0.817272
0.809634
0.800227
0.791486
0.782084
0.773261
0.765811
0.761401
0.758791
0.758579
0.757752
0.763004
0.765291
0.77457
0.78284
0.790486
0.804758
0.809535
0.819985
0.82978
0.840245
0.84813
0.856737
0.865039
0.871115
0.881224
0.887542
0.895137
0.901644
0.907615
0.914154
0.921442
0.927499
0.933866
0.938929
0.945429
0.950945
0.957295
0.964023
0.970215
0.977072
0.983414
0.990041
0.996919
1.00344
1.01065
1.0177
1.02608
1.03353
1.04063
1.04729
1.05517
1.06324
1.07194
1.08074
1.09081
1.10036
1.10977
1.11932
1.13105
1.1432
1.1549
1.16651
1.18
1.1948
1.21055
1.22855
1.2451
1.26195
1.27259
1.28471
1.25966
1.21371
1.11512
1.0233
0.909294
0.840343
0.801888
0.803359
0.743788
0.697968
0.652425
0.63075
0.615465
0.598052
0.593539
0.582333
0.58222
0.572247
0.571288
0.570548
0.568079
0.567493
0.565337
0.565441
0.563834
0.563349
0.561959
0.559737
0.558535
0.556631
0.554207
0.550988
0.548298
0.545995
0.545055
0.543138
0.540508
0.535215
0.53534
0.528007
0.526347
0.524569
0.523093
0.522156
0.521114
0.519215
0.517445
0.516353
0.513644
0.510013
0.505043
0.499449
0.497547
0.493028
0.490667
0.490116
0.486186
0.483949
0.481546
0.477548
0.47595
0.470315
0.469109
0.463949
0.463397
0.456309
0.457741
0.453217
0.444867
0.437396
0.438706
0.437053
0.482904
0.545952
0.632385
0.659838
0.684316
0.698784
0.71542
0.724802
0.735034
0.738087
0.740957
0.740857
0.742162
0.740935
0.742159
0.740514
0.742275
0.74129
0.743982
0.744052
0.746855
0.747317
0.750088
0.751818
0.754566
0.755912
0.757263
0.756663
0.756091
0.754448
0.753999
0.752832
0.752926
0.752223
0.75369
0.754364
0.756512
0.757426
0.758866
0.759109
0.760278
0.76038
0.761576
0.761811
0.762984
0.763159
0.764153
0.76414
0.764777
0.76449
0.764997
0.764493
0.764629
0.763784
0.763388
0.762272
0.761966
0.761219
0.761324
0.761045
0.761576
0.761582
0.762221
0.762238
0.762998
0.763168
0.764225
0.764445
0.765612
0.765902
0.767155
0.767251
0.768832
0.768818
0.77054
0.770131
0.772182
0.770233
0.7735
0.766278
0.773662
0.76852
0.755561
0.771999
0.790584
0.793572
0.827981
0.883203
0.874861
0.850608
0.885834
0.896456
0.845584
0.902678
0.974049
0.988477
0.951475
0.959498
0.976078
0.971982
0.968468
0.966364
0.967601
0.976065
0.990357
0.998556
1.02839
1.0196
1.0842
1.04602
1.08211
1.04832
1.03115
1.01826
1.01823
1.03117
1.04837
1.08211
1.04608
1.08399
1.0197
1.02817
0.998613
0.990258
0.975933
0.967632
0.966297
0.968591
0.972123
0.975842
0.958987
0.950268
0.983553
0.972234
0.905565
0.861416
0.89766
0.884849
0.855429
0.866559
0.859106
0.836701
0.835851
0.844067
0.83534
0.843376
0.847926
0.860809
0.865559
0.877191
0.879271
0.889938
0.890284
0.900886
0.89995
0.909417
0.9081
0.915797
0.915295
0.922329
0.922401
0.928017
0.928401
0.933494
0.9342
0.938045
0.939198
0.943071
0.944233
0.946052
0.947387
0.949642
0.951558
0.953972
0.954307
0.956482
0.957545
0.958757
0.95931
0.959793
0.960672
0.960955
0.961159
0.961591
0.961501
0.961566
0.961604
0.961235
0.960766
0.96057
0.959721
0.959208
0.957828
0.957123
0.95583
0.954867
0.953337
0.951796
0.949809
0.948064
0.945992
0.943904
0.94186
0.939486
0.936736
0.93365
0.930648
0.927316
0.923874
0.920097
0.916226
0.912183
0.907879
0.903169
0.898239
0.893236
0.888003
0.879687
0.871534
0.868307
0.865238
0.858696
0.851602
0.844238
0.837164
0.830019
0.823228
0.814846
0.807074
0.798633
0.790567
0.783785
0.779863
0.777637
0.777568
0.776996
0.782117
0.78442
0.793225
0.801267
0.808529
0.822257
0.827092
0.837134
0.846472
0.856676
0.864288
0.872699
0.88086
0.886537
0.896446
0.902565
0.909845
0.916499
0.92209
0.928582
0.935499
0.941478
0.94756
0.952642
0.958684
0.964167
0.97014
0.976551
0.982336
0.989034
0.994911
1.00111
1.00756
1.01346
1.02022
1.02656
1.03434
1.04086
1.04743
1.05346
1.06056
1.06761
1.07543
1.08316
1.0921
1.10077
1.10975
1.11849
1.12909
1.1407
1.15248
1.16404
1.17663
1.19098
1.20476
1.21972
1.23409
1.2493
1.25315
1.26122
1.24808
1.21513
1.15017
1.08286
0.995957
0.923799
0.872808
0.856406
0.796451
0.750469
0.706243
0.684732
0.663389
0.641219
0.636271
0.622739
0.621503
0.61117
0.609707
0.607772
0.605659
0.604525
0.602382
0.601337
0.599721
0.597422
0.595539
0.593075
0.590535
0.587916
0.586094
0.581849
0.578651
0.57575
0.574506
0.572618
0.568367
0.563328
0.563955
0.555711
0.553063
0.551284
0.549691
0.548312
0.546612
0.544475
0.542751
0.541082
0.538304
0.534091
0.528828
0.523491
0.520822
0.515909
0.513799
0.512775
0.508955
0.506039
0.503693
0.499296
0.497579
0.491551
0.490608
0.485088
0.484606
0.47689
0.478387
0.473657
0.466277
0.461832
0.462277
0.467236
0.495504
0.578625
0.630303
0.647505
0.673056
0.689048
0.706465
0.716732
0.726902
0.730507
0.733809
0.732994
0.734753
0.733446
0.735027
0.733561
0.735945
0.735074
0.73849
0.738455
0.741753
0.74218
0.745308
0.746781
0.749339
0.75035
0.751476
0.750892
0.750519
0.749175
0.749011
0.748081
0.748424
0.747935
0.749373
0.749923
0.751904
0.752683
0.754153
0.754519
0.755962
0.756318
0.757725
0.758107
0.759388
0.759643
0.760698
0.760758
0.761446
0.76117
0.761659
0.761193
0.761339
0.760474
0.76009
0.758983
0.758708
0.758012
0.758201
0.758043
0.758715
0.758874
0.759681
0.75983
0.760721
0.761028
0.762203
0.762551
0.763879
0.764258
0.765568
0.765975
0.767427
0.767367
0.768916
0.76826
0.770092
0.768915
0.770061
0.766003
0.770082
0.755865
0.772508
0.759145
0.778478
0.757082
0.79185
0.841034
0.8574
0.836034
0.884519
0.889184
0.845584
0.901885
0.975392
0.990228
0.951558
0.959665
0.976222
0.971857
0.96871
0.966413
0.967558
0.976124
0.990418
0.998355
1.02849
1.01927
1.08422
1.04591
1.08213
1.04868
1.03183
1.01827
1.01818
1.03174
1.04848
1.0825
1.04596
1.08386
1.01952
1.0281
0.998561
0.990221
0.975865
0.967541
0.966258
0.968907
0.972195
0.975683
0.958664
0.949619
0.981068
0.971193
0.907237
0.867356
0.898851
0.887682
0.858094
0.868934
0.868374
0.852641
0.852444
0.854309
0.858105
0.85971
0.849338
0.876526
0.867658
0.886045
0.881886
0.896147
0.893316
0.90552
0.903215
0.913201
0.911554
0.919076
0.918779
0.925422
0.925657
0.931064
0.931483
0.936401
0.937226
0.940803
0.942288
0.945737
0.947044
0.948664
0.950257
0.952278
0.954442
0.956332
0.957326
0.958574
0.960614
0.960898
0.962099
0.962379
0.963237
0.963602
0.963633
0.964233
0.964097
0.964317
0.96412
0.964016
0.963533
0.963299
0.962527
0.962056
0.960751
0.960119
0.958859
0.957985
0.956526
0.955096
0.953229
0.951588
0.949659
0.947713
0.94583
0.943629
0.941089
0.938233
0.935467
0.932401
0.929222
0.92574
0.92217
0.918429
0.914453
0.910084
0.905515
0.900882
0.896015
0.888151
0.88049
0.877693
0.874985
0.868966
0.86242
0.855644
0.849129
0.842535
0.836239
0.828353
0.820991
0.812872
0.804915
0.798306
0.794454
0.79217
0.792014
0.791291
0.79633
0.798494
0.807027
0.814799
0.822016
0.835456
0.840126
0.849603
0.858957
0.868837
0.876213
0.884302
0.89218
0.897718
0.907168
0.91315
0.920214
0.926225
0.931977
0.937852
0.944674
0.950268
0.95629
0.96067
0.96676
0.971804
0.977456
0.983477
0.988898
0.995155
1.00058
1.00641
1.01232
1.01807
1.02436
1.03059
1.03755
1.04385
1.05001
1.05619
1.06305
1.07014
1.07784
1.08588
1.09468
1.10348
1.11237
1.12175
1.13248
1.14386
1.15526
1.16706
1.18019
1.19458
1.21034
1.22633
1.2422
1.25892
1.26502
1.27604
1.25359
1.2194
1.15751
1.0872
0.996362
0.928166
0.875001
0.858318
0.805155
0.760002
0.713567
0.688591
0.667347
0.648975
0.642085
0.629863
0.630412
0.619501
0.61815
0.618994
0.618163
0.617417
0.616146
0.616893
0.615486
0.615429
0.615354
0.613346
0.611491
0.609128
0.606408
0.603558
0.600347
0.597945
0.596905
0.594417
0.591134
0.58595
0.585521
0.57796
0.576372
0.573564
0.571166
0.569766
0.569063
0.565995
0.563899
0.562183
0.559673
0.554929
0.549865
0.54288
0.541068
0.535789
0.533355
0.53249
0.527946
0.525139
0.522609
0.517628
0.516161
0.50976
0.508901
0.502752
0.502518
0.494561
0.495426
0.492238
0.483643
0.479233
0.477591
0.482782
0.509455
0.589197
0.637621
0.644882
0.666122
0.682108
0.69949
0.710302
0.720599
0.725167
0.730507
0.730462
0.732028
0.731245
0.732631
0.731592
0.733812
0.733252
0.736511
0.736567
0.73981
0.740231
0.743314
0.744571
0.747032
0.747899
0.749089
0.748597
0.748379
0.747137
0.747012
0.746093
0.746506
0.745993
0.747286
0.747645
0.749464
0.750173
0.751802
0.752318
0.753806
0.754131
0.755508
0.755867
0.757153
0.757406
0.758474
0.758548
0.759236
0.758968
0.759478
0.759004
0.759158
0.758294
0.757937
0.756881
0.756681
0.756069
0.756363
0.756302
0.757088
0.757363
0.758296
0.758569
0.759582
0.759986
0.761274
0.761678
0.763127
0.763472
0.764961
0.765091
0.767036
0.766663
0.769002
0.767443
0.770537
0.769175
0.771735
0.765254
0.770823
0.761235
0.766269
0.753397
0.774737
0.749426
0.778319
0.838286
0.839618
0.834428
0.888285
0.880782
0.836585
0.900366
0.976606
0.992901
0.951609
0.959597
0.976369
0.971872
0.968316
0.966464
0.967557
0.976204
0.990497
0.99852
1.02862
1.01923
1.08442
1.046
1.08214
1.04849
1.03119
1.01822
1.01827
1.0313
1.04841
1.08207
1.04612
1.08378
1.01969
1.02804
0.998585
0.990189
0.975803
0.96761
0.966212
0.968689
0.972287
0.97553
0.958392
0.948791
0.977725
0.97043
0.908912
0.871883
0.898662
0.888443
0.86457
0.873885
0.868574
0.852308
0.851979
0.854254
0.853739
0.863172
0.862758
0.873346
0.875756
0.885636
0.887278
0.896904
0.897183
0.906962
0.906156
0.915043
0.914096
0.921151
0.921248
0.927423
0.927916
0.933129
0.933777
0.938505
0.939288
0.943163
0.944312
0.947723
0.948925
0.950974
0.952343
0.954587
0.956307
0.958586
0.9591
0.961371
0.96218
0.963358
0.964191
0.964464
0.965746
0.965796
0.966147
0.966291
0.966743
0.966618
0.966582
0.966619
0.966193
0.965884
0.965241
0.964776
0.963599
0.962988
0.961829
0.961024
0.959629
0.958308
0.956561
0.95502
0.953236
0.951421
0.949678
0.947635
0.945295
0.942638
0.940074
0.937226
0.934262
0.931029
0.927699
0.9242
0.920494
0.916397
0.91211
0.907724
0.903123
0.895689
0.888467
0.885868
0.883393
0.877753
0.871628
0.865233
0.859041
0.852745
0.846665
0.839027
0.831788
0.823742
0.815673
0.808988
0.804983
0.802674
0.802174
0.801468
0.806149
0.808112
0.81637
0.824112
0.830752
0.844167
0.848675
0.858185
0.86708
0.876878
0.884088
0.891986
0.899942
0.9048
0.914492
0.919919
0.926699
0.932983
0.937921
0.943929
0.950059
0.955526
0.960728
0.965354
0.970371
0.975337
0.980338
0.985955
0.990866
0.996928
1.00186
1.0075
1.01338
1.01867
1.02488
1.03064
1.03774
1.0438
1.05025
1.05637
1.06346
1.0706
1.07848
1.08637
1.09528
1.10392
1.11322
1.12242
1.13298
1.14446
1.15613
1.16814
1.18051
1.19465
1.20841
1.22272
1.23636
1.24772
1.25474
1.2642
1.24974
1.22216
1.16831
1.11158
1.03677
0.96878
0.912827
0.886149
0.827881
0.783359
0.737137
0.713098
0.689168
0.662562
0.654914
0.63873
0.637129
0.628439
0.625833
0.624385
0.624198
0.623576
0.622588
0.62304
0.624239
0.622413
0.622448
0.622534
0.621495
0.620661
0.619225
0.615987
0.613625
0.612522
0.612114
0.610441
0.606703
0.60222
0.603277
0.594128
0.591822
0.589802
0.587857
0.586604
0.585027
0.582896
0.580939
0.57888
0.575971
0.571826
0.56537
0.560584
0.556447
0.551271
0.54877
0.547933
0.543928
0.54056
0.537309
0.533352
0.53053
0.524888
0.522643
0.518207
0.515989
0.509117
0.509012
0.505776
0.496205
0.492085
0.489388
0.494421
0.520096
0.601485
0.654475
0.649388
0.664429
0.678728
0.695232
0.706176
0.716521
0.721433
0.727322
0.728853
0.730409
0.729968
0.7313
0.730544
0.732682
0.732365
0.735455
0.73561
0.738758
0.739194
0.742192
0.743329
0.745742
0.746551
0.747836
0.747388
0.747248
0.746
0.745901
0.744958
0.74542
0.744887
0.746123
0.746412
0.748176
0.748867
0.750568
0.751032
0.752337
0.752686
0.75411
0.754496
0.755812
0.756078
0.757178
0.757268
0.757972
0.757731
0.758248
0.75774
0.757908
0.757063
0.75673
0.755698
0.755518
0.754924
0.755237
0.755198
0.756023
0.756331
0.757298
0.757603
0.75861
0.759005
0.760275
0.760664
0.762047
0.762444
0.763835
0.764066
0.765672
0.765613
0.767164
0.766108
0.768371
0.767519
0.769202
0.764418
0.770592
0.759948
0.771616
0.757248
0.775761
0.753034
0.780777
0.81161
0.797895
0.810738
0.883606
0.879998
0.835852
0.89972
0.977851
0.99452
0.951297
0.959269
0.97649
0.97185
0.968603
0.966507
0.967547
0.976258
0.990562
0.998399
1.02868
1.01913
1.08449
1.04595
1.08218
1.04869
1.03173
1.01833
1.01813
1.03173
1.04844
1.08244
1.046
1.08369
1.01961
1.02799
0.998513
0.990157
0.975743
0.967551
0.966168
0.968941
0.972344
0.975327
0.9581
0.947993
0.974698
0.96937
0.910315
0.876008
0.898608
0.889264
0.866304
0.876985
0.873701
0.864916
0.861613
0.865131
0.865284
0.871046
0.867613
0.883502
0.877878
0.893778
0.888995
0.902811
0.89938
0.911208
0.908593
0.918329
0.916763
0.924112
0.923823
0.930295
0.930447
0.935839
0.936355
0.941014
0.941914
0.94561
0.946957
0.950094
0.951546
0.953298
0.955106
0.95697
0.959137
0.960789
0.962258
0.963186
0.96538
0.965426
0.966954
0.967274
0.968217
0.968669
0.968655
0.969146
0.969331
0.969561
0.969307
0.96955
0.969134
0.968816
0.968245
0.96785
0.966751
0.966227
0.965108
0.964382
0.963081
0.96188
0.960251
0.958826
0.957178
0.955494
0.953905
0.952009
0.949851
0.947386
0.945018
0.94238
0.93962
0.936604
0.933485
0.930198
0.926709
0.922836
0.918793
0.914639
0.910246
0.903071
0.896171
0.893867
0.891498
0.886129
0.880247
0.874086
0.868038
0.861841
0.855792
0.848136
0.840849
0.832637
0.824274
0.817496
0.813335
0.810691
0.810119
0.809081
0.813785
0.815669
0.823736
0.831123
0.837979
0.850978
0.855361
0.864387
0.873317
0.882704
0.889739
0.897322
0.904709
0.909753
0.918711
0.924019
0.930548
0.936061
0.94133
0.946541
0.952766
0.95757
0.963098
0.966864
0.972434
0.977092
0.982049
0.987786
0.992613
0.998611
1.0034
1.00926
1.01495
1.02065
1.0269
1.03301
1.03962
1.04595
1.05205
1.05848
1.06535
1.07268
1.0804
1.08858
1.0973
1.10593
1.11483
1.1245
1.13526
1.14626
1.15758
1.1694
1.18251
1.19583
1.21112
1.22316
1.23713
1.2487
1.25327
1.26244
1.24371
1.21501
1.16552
1.10714
1.03357
0.969188
0.91322
0.885664
0.833183
0.790795
0.743924
0.71533
0.690209
0.668482
0.657666
0.642357
0.641064
0.628504
0.627775
0.626604
0.625022
0.623557
0.622974
0.623201
0.623739
0.622088
0.622585
0.622684
0.622878
0.620109
0.620316
0.618185
0.617156
0.615093
0.615748
0.615574
0.612926
0.609404
0.609986
0.603844
0.602011
0.600906
0.598941
0.598287
0.597597
0.594952
0.593208
0.591884
0.589892
0.584693
0.579812
0.572607
0.570141
0.564842
0.562028
0.561337
0.556046
0.553639
0.550348
0.545001
0.542726
0.536767
0.535506
0.529348
0.5288
0.520809
0.520036
0.518324
0.507994
0.504461
0.499749
0.504566
0.529364
0.610606
0.665561
0.656373
0.664953
0.676451
0.691869
0.702611
0.712865
0.718038
0.724036
0.726775
0.728999
0.728847
0.730212
0.729675
0.731805
0.731706
0.734681
0.734961
0.738015
0.738493
0.741425
0.742458
0.744814
0.745575
0.746962
0.746555
0.746466
0.745148
0.74509
0.744175
0.744739
0.7442
0.745349
0.745527
0.747202
0.74782
0.749549
0.75005
0.751476
0.751907
0.753283
0.753659
0.75495
0.755194
0.756284
0.756359
0.757058
0.756803
0.757315
0.756778
0.756933
0.756096
0.75579
0.75478
0.754624
0.754049
0.754384
0.754355
0.755188
0.755517
0.756506
0.756837
0.757853
0.758262
0.759536
0.759916
0.761341
0.761665
0.763162
0.76317
0.765106
0.764873
0.766649
0.765313
0.767837
0.766917
0.769029
0.765558
0.769809
0.761865
0.769814
0.75772
0.774985
0.753436
0.786134
0.808269
0.777404
0.802621
0.881416
0.863873
0.827118
0.898635
0.979464
0.996196
0.950462
0.95891
0.976596
0.971944
0.968261
0.966564
0.967499
0.976319
0.990639
0.998485
1.02879
1.0191
1.08457
1.04593
1.08221
1.04846
1.03123
1.01812
1.01827
1.03133
1.04842
1.08225
1.0462
1.08361
1.01965
1.02791
0.998525
0.990122
0.975679
0.967614
0.966138
0.96874
0.972461
0.975148
0.957806
0.947207
0.972497
0.968489
0.911263
0.879884
0.898378
0.890097
0.871907
0.88131
0.87655
0.864107
0.862983
0.866459
0.866841
0.875092
0.875016
0.883979
0.88491
0.89461
0.894473
0.904302
0.903613
0.912977
0.912107
0.920299
0.919917
0.926176
0.926748
0.93249
0.933146
0.938022
0.938909
0.943274
0.944273
0.948056
0.949328
0.952497
0.953763
0.956055
0.957363
0.959739
0.961282
0.963554
0.964297
0.966385
0.967257
0.968244
0.969568
0.969726
0.971183
0.971214
0.971689
0.971707
0.972471
0.972324
0.972259
0.972688
0.972316
0.971919
0.971484
0.97116
0.970158
0.969687
0.968678
0.968042
0.966813
0.965724
0.964226
0.962915
0.961423
0.959879
0.958434
0.956694
0.954722
0.952435
0.950249
0.947793
0.945205
0.942397
0.939455
0.936356
0.933068
0.929375
0.92551
0.921497
0.917236
0.910343
0.903766
0.901488
0.899165
0.893901
0.888196
0.882096
0.876037
0.869794
0.863606
0.855854
0.848378
0.839986
0.831251
0.824193
0.819785
0.817039
0.816094
0.814999
0.819341
0.820798
0.828682
0.835817
0.842103
0.854887
0.859009
0.867916
0.876228
0.885431
0.891997
0.899209
0.90684
0.910765
0.92004
0.924795
0.931141
0.936782
0.941381
0.947155
0.952806
0.957933
0.962729
0.967376
0.972244
0.977127
0.981944
0.987517
0.992447
0.998472
1.00344
1.0091
1.01511
1.0204
1.02675
1.03254
1.0397
1.04574
1.05252
1.0589
1.06579
1.07294
1.08093
1.08873
1.09789
1.10656
1.116
1.12517
1.13619
1.14695
1.15895
1.17011
1.18306
1.19545
1.20975
1.22202
1.23301
1.24383
1.24789
1.25688
1.23822
1.21821
1.17481
1.12755
1.06351
1.00186
0.94577
0.911504
0.857741
0.815101
0.767597
0.740073
0.712767
0.684553
0.671134
0.653069
0.650071
0.639759
0.636187
0.631646
0.630363
0.631082
0.626623
0.627594
0.627597
0.627344
0.626568
0.626681
0.627211
0.625239
0.623375
0.621663
0.619852
0.61982
0.619364
0.619209
0.617563
0.614043
0.615629
0.607392
0.606202
0.60593
0.604786
0.605345
0.604529
0.604009
0.602397
0.601547
0.599683
0.596847
0.589679
0.585984
0.58083
0.575831
0.573254
0.572625
0.56903
0.565368
0.561575
0.558269
0.554947
0.549407
0.54623
0.54261
0.539435
0.533271
0.532055
0.529536
0.51885
0.51512
0.510222
0.513843
0.537315
0.619104
0.679478
0.668087
0.669575
0.677234
0.690184
0.700183
0.71004
0.715171
0.720963
0.72424
0.727395
0.727693
0.72915
0.728822
0.731014
0.731132
0.734028
0.734423
0.737423
0.737957
0.740815
0.741775
0.744085
0.744803
0.74628
0.745927
0.745911
0.74452
0.744501
0.74359
0.744177
0.74362
0.744725
0.744861
0.746502
0.747096
0.748825
0.749268
0.750631
0.75108
0.752496
0.752878
0.754174
0.754422
0.755517
0.755609
0.756314
0.756051
0.756562
0.756015
0.756152
0.75534
0.755043
0.754045
0.753871
0.753281
0.753591
0.753541
0.754335
0.754642
0.7556
0.755912
0.756869
0.757244
0.758439
0.758782
0.760104
0.760423
0.761709
0.761828
0.763461
0.763427
0.764978
0.763994
0.766077
0.765108
0.767592
0.764502
0.76882
0.762527
0.771084
0.762444
0.775452
0.764675
0.784178
0.80344
0.772909
0.781728
0.871603
0.865406
0.824269
0.897747
0.98124
0.997711
0.948844
0.95843
0.97671
0.972034
0.968519
0.966628
0.967471
0.976376
0.990716
0.998394
1.02888
1.01893
1.08466
1.0459
1.08222
1.04877
1.03183
1.01828
1.01822
1.03177
1.04833
1.08247
1.04604
1.08348
1.0196
1.02781
0.998494
0.990082
0.975617
0.967537
0.966107
0.968913
0.972535
0.974963
0.957524
0.94638
0.974886
0.967516
0.911803
0.882602
0.897927
0.891375
0.878143
0.884307
0.879618
0.873739
0.872865
0.874984
0.876607
0.881728
0.881223
0.891461
0.88908
0.901313
0.897804
0.909872
0.906455
0.917559
0.914897
0.924182
0.922686
0.92974
0.92955
0.935731
0.936127
0.940956
0.941939
0.946193
0.947324
0.950862
0.952265
0.955178
0.956829
0.958606
0.960591
0.962388
0.964496
0.966222
0.967768
0.968818
0.970661
0.970982
0.972457
0.973121
0.973962
0.974546
0.974682
0.975045
0.975398
0.975693
0.975568
0.976004
0.975725
0.975362
0.974967
0.974735
0.97383
0.973449
0.972496
0.971943
0.970819
0.969866
0.968488
0.967307
0.965948
0.964524
0.963226
0.961609
0.9598
0.957676
0.955651
0.953359
0.950926
0.948269
0.945459
0.942495
0.939321
0.935751
0.932019
0.928119
0.923922
0.917108
0.910671
0.908496
0.906011
0.900803
0.895087
0.888916
0.882716
0.876307
0.869926
0.861878
0.8541
0.845292
0.836103
0.828704
0.824753
0.821049
0.820485
0.818553
0.823156
0.824231
0.832122
0.838575
0.845298
0.857179
0.861447
0.869752
0.878245
0.886784
0.893541
0.900511
0.907662
0.912117
0.920951
0.925756
0.932279
0.937461
0.942665
0.947626
0.953973
0.958627
0.964087
0.967748
0.973435
0.978167
0.982995
0.988799
0.993699
0.999761
1.00474
1.0106
1.01615
1.02189
1.02836
1.03442
1.04118
1.04722
1.05364
1.06032
1.06758
1.07456
1.08243
1.09028
1.09947
1.10764
1.11733
1.12594
1.13755
1.14734
1.15942
1.16978
1.18336
1.19476
1.20916
1.22084
1.23197
1.24154
1.24348
1.2507
1.23167
1.20924
1.16742
1.12056
1.0563
0.999552
0.944763
0.910325
0.859197
0.818128
0.772781
0.740932
0.712774
0.687834
0.674183
0.656668
0.653265
0.638928
0.635342
0.633207
0.629432
0.628179
0.627392
0.627151
0.62606
0.626674
0.625869
0.625981
0.625446
0.625421
0.623336
0.619874
0.619235
0.618646
0.618868
0.616994
0.615304
0.612727
0.612579
0.607176
0.605987
0.604953
0.603816
0.604287
0.604351
0.603191
0.602787
0.602883
0.601778
0.598391
0.594667
0.589054
0.587077
0.582791
0.580523
0.580364
0.575304
0.573942
0.570795
0.565651
0.563147
0.557695
0.556568
0.550141
0.549976
0.54147
0.540134
0.539069
0.5281
0.524435
0.518933
0.521758
0.543894
0.626345
0.690232
0.680351
0.675602
0.67853
0.689322
0.698247
0.707534
0.712602
0.7182
0.721586
0.72545
0.726447
0.728061
0.727916
0.730195
0.730537
0.733428
0.733967
0.736943
0.737553
0.740369
0.741257
0.743518
0.744197
0.745745
0.745432
0.745476
0.744012
0.744033
0.74316
0.743807
0.743239
0.744275
0.744323
0.745893
0.746417
0.748146
0.74863
0.750147
0.750643
0.752022
0.752368
0.753632
0.753852
0.754928
0.754999
0.755702
0.755422
0.755907
0.755358
0.755509
0.754675
0.754411
0.753413
0.753246
0.752653
0.752951
0.752876
0.753641
0.753931
0.754874
0.755185
0.756107
0.75647
0.757611
0.757939
0.759243
0.759515
0.760807
0.760772
0.762413
0.762314
0.76393
0.763454
0.764631
0.764166
0.765777
0.764604
0.767373
0.762471
0.769399
0.761863
0.774391
0.764878
0.787686
0.802743
0.774687
0.783381
0.852241
0.838238
0.813766
0.896554
0.983233
0.999092
0.946452
0.957924
0.976847
0.972142
0.96829
0.966691
0.967413
0.976434
0.990796
0.99842
1.02896
1.01884
1.08475
1.04596
1.08198
1.04843
1.03117
1.01805
1.0183
1.03129
1.0483
1.0823
1.04609
1.0834
1.01951
1.02775
0.998386
0.990036
0.975553
0.967589
0.966095
0.968786
0.972596
0.974839
0.957379
0.945565
0.981343
0.966639
0.912084
0.885927
0.897588
0.893045
0.88477
0.887442
0.881551
0.876024
0.874795
0.878674
0.879604
0.88673
0.886346
0.894672
0.89481
0.9035
0.90345
0.911854
0.911308
0.919818
0.918842
0.926749
0.926018
0.932665
0.932387
0.93871
0.938725
0.943853
0.944387
0.949077
0.949819
0.95369
0.954838
0.958057
0.959342
0.961883
0.963142
0.965509
0.967038
0.969229
0.970314
0.971854
0.973241
0.973918
0.975696
0.975888
0.977159
0.977492
0.978119
0.978184
0.978818
0.978885
0.978958
0.979545
0.97927
0.978917
0.978651
0.978494
0.977684
0.977377
0.976529
0.976069
0.975023
0.97417
0.972918
0.971846
0.970629
0.969336
0.968159
0.966669
0.965003
0.963007
0.96111
0.958931
0.95659
0.954059
0.95133
0.948458
0.945369
0.941842
0.93814
0.934225
0.929972
0.923204
0.916886
0.914494
0.911848
0.906442
0.900737
0.894264
0.887798
0.881023
0.874203
0.865667
0.857816
0.848573
0.839036
0.831221
0.826576
0.822803
0.821956
0.819589
0.824867
0.824431
0.833279
0.838542
0.845979
0.85666
0.862049
0.869453
0.878628
0.886442
0.894121
0.899854
0.908999
0.911585
0.921716
0.925274
0.933053
0.937371
0.943317
0.94783
0.954384
0.958714
0.964573
0.968084
0.974196
0.97797
0.984154
0.98841
0.994779
0.999397
1.00584
1.01026
1.01743
1.02187
1.02922
1.03406
1.0422
1.04733
1.05515
1.06048
1.06868
1.07494
1.08408
1.09084
1.1009
1.10833
1.11901
1.12731
1.13878
1.14847
1.16086
1.17136
1.1837
1.1953
1.20687
1.21903
1.22813
1.23657
1.2383
1.24679
1.2303
1.21154
1.17459
1.1353
1.07953
1.02635
0.972071
0.932719
0.883024
0.842804
0.796718
0.76534
0.735103
0.70488
0.690234
0.669096
0.662194
0.651004
0.64487
0.638911
0.638638
0.635923
0.631895
0.633069
0.63117
0.630077
0.631141
0.630529
0.629429
0.628465
0.627
0.624265
0.622424
0.621626
0.622067
0.620683
0.619408
0.615302
0.617325
0.608392
0.60807
0.607033
0.606639
0.606195
0.60693
0.605566
0.605172
0.604678
0.604491
0.602077
0.59627
0.593826
0.589699
0.58527
0.58434
0.584434
0.582564
0.579068
0.576859
0.574087
0.5717
0.565942
0.563223
0.560152
0.557539
0.551555
0.550241
0.548047
0.537531
0.532932
0.52782
0.52858
0.549447
0.632462
0.700687
0.694491
0.685348
0.683907
0.690642
0.697785
0.70605
0.710692
0.715865
0.719111
0.723235
0.724982
0.726897
0.726951
0.729338
0.729908
0.732816
0.7335
0.736504
0.737205
0.739985
0.740826
0.743048
0.743701
0.74529
0.745013
0.745138
0.743623
0.743672
0.742811
0.743454
0.74287
0.743875
0.743897
0.745431
0.745927
0.747624
0.748073
0.749559
0.750069
0.751455
0.751798
0.753055
0.753279
0.754351
0.754441
0.755131
0.754873
0.755329
0.754789
0.754927
0.754111
0.753848
0.752854
0.752658
0.752044
0.752287
0.752169
0.752861
0.753109
0.753979
0.754261
0.755097
0.75542
0.756432
0.756738
0.757907
0.758174
0.759299
0.759305
0.760623
0.760648
0.762223
0.761613
0.763305
0.762593
0.764135
0.763929
0.765658
0.763553
0.768525
0.765384
0.774055
0.77093
0.779516
0.799451
0.772449
0.771607
0.862412
0.842049
0.808076
0.89546
0.985395
1.00036
0.943291
0.957387
0.976999
0.972254
0.968516
0.966765
0.967353
0.976488
0.990877
0.99841
1.02903
1.01875
1.08485
1.04593
1.08201
1.04887
1.03185
1.01811
1.01815
1.0318
1.04828
1.0824
1.04604
1.08335
1.01944
1.02783
0.998243
0.989984
0.975486
0.967552
0.966093
0.968878
0.972568
0.974791
0.957351
0.945969
0.986587
0.965638
0.912151
0.88805
0.897337
0.894375
0.888402
0.888212
0.88639
0.884129
0.883681
0.887053
0.887672
0.89274
0.892805
0.901128
0.899445
0.909787
0.907086
0.91733
0.91469
0.924327
0.9222
0.930606
0.929507
0.936045
0.936008
0.941655
0.942446
0.946671
0.948031
0.952056
0.953307
0.956662
0.958128
0.960923
0.962734
0.964646
0.966619
0.968512
0.970384
0.972416
0.973648
0.975253
0.976478
0.97743
0.978548
0.979582
0.980342
0.980885
0.981567
0.981788
0.98216
0.982557
0.982616
0.983087
0.983035
0.982699
0.982487
0.982381
0.981691
0.98146
0.980674
0.980297
0.979341
0.978614
0.977469
0.976514
0.9754
0.974187
0.973115
0.971691
0.970131
0.968231
0.966412
0.964305
0.962025
0.959528
0.95681
0.953942
0.950811
0.947248
0.943506
0.939537
0.935146
0.928149
0.921745
0.919222
0.916192
0.910097
0.904261
0.897544
0.890759
0.883608
0.876402
0.867585
0.859389
0.849905
0.840246
0.832349
0.827545
0.823889
0.822747
0.820412
0.825799
0.825768
0.834586
0.839619
0.847473
0.857714
0.863288
0.870485
0.879784
0.887132
0.895047
0.900764
0.909171
0.912548
0.922181
0.926128
0.933502
0.937652
0.944189
0.947952
0.955282
0.958833
0.965461
0.967884
0.974701
0.978683
0.984524
0.989199
0.995449
1.00019
1.00646
1.01119
1.01803
1.02249
1.03003
1.03504
1.04292
1.04813
1.05576
1.06164
1.06942
1.07585
1.08423
1.09166
1.10115
1.1091
1.11916
1.12776
1.13846
1.14884
1.15931
1.17115
1.18254
1.1945
1.20612
1.21657
1.22613
1.2339
1.23436
1.24078
1.22202
1.20195
1.1664
1.12744
1.07167
1.02158
0.968566
0.931698
0.883403
0.843967
0.798133
0.766601
0.734002
0.709863
0.691458
0.673005
0.665142
0.651126
0.644609
0.641095
0.635857
0.63689
0.632351
0.632827
0.630782
0.630455
0.630791
0.630056
0.629025
0.626161
0.625905
0.624331
0.620963
0.620874
0.620028
0.61896
0.617389
0.614657
0.615961
0.609373
0.606827
0.60558
0.604978
0.605131
0.605551
0.603894
0.603134
0.60368
0.603254
0.59977
0.596329
0.59093
0.589769
0.585279
0.583721
0.58367
0.579298
0.579271
0.577512
0.573203
0.571546
0.567505
0.567297
0.561271
0.562409
0.553862
0.55346
0.553304
0.542543
0.538546
0.532824
0.533626
0.554347
0.636988
0.70961
0.707756
0.695195
0.688763
0.692749
0.697908
0.704982
0.709178
0.713973
0.716974
0.721018
0.723332
0.72564
0.72591
0.728399
0.729194
0.732171
0.733022
0.736086
0.736908
0.739694
0.740488
0.742683
0.743305
0.744919
0.744657
0.744848
0.743303
0.743375
0.742544
0.743224
0.742624
0.743579
0.743528
0.745002
0.745438
0.747132
0.747621
0.749232
0.749763
0.751109
0.751415
0.752642
0.752834
0.753888
0.753952
0.754639
0.754357
0.754834
0.754263
0.754413
0.753594
0.753352
0.752363
0.752168
0.751532
0.751753
0.751592
0.75224
0.752448
0.753285
0.753553
0.754349
0.754646
0.755577
0.75588
0.756962
0.757246
0.758337
0.758333
0.759502
0.75942
0.760946
0.760627
0.761812
0.761474
0.762568
0.762472
0.76395
0.762252
0.766476
0.762614
0.771602
0.765424
0.782082
0.799314
0.769677
0.792527
0.851565
0.80432
0.795638
0.894028
0.987604
1.00147
0.939532
0.956952
0.977069
0.972403
0.968315
0.966838
0.967287
0.976547
0.990952
0.998399
1.02912
1.01868
1.08497
1.04596
1.08176
1.04832
1.03131
1.01809
1.01828
1.0314
1.04828
1.08229
1.04591
1.08345
1.01929
1.02799
0.998055
0.989918
0.975419
0.967608
0.966072
0.968801
0.972641
0.974664
0.957832