/*--------------------------------*- C++ -*----------------------------------*\
| =========                 |                                                 |
| \\      /  F ield         | OpenFOAM: The Open Source CFD Toolbox           |
|  \\    /   O peration     | Version:  v2006                                 |
|   \\  /    A nd           | Website:  www.openfoam.com                      |
|    \\/     M anipulation  |                                                 |
\*---------------------------------------------------------------------------*/
FoamFile
{
    version     2.0;
    format      ascii;
    class       volScalarField;
    location    "220";
    object      T;
}
// * * * * * * * * * * * * * * * * * * * * * * * * * * * * * * * * * * * * * //

dimensions      [0 0 0 1 0 0 0];


internalField   nonuniform List<scalar> 
93840
(
1.00772
1.01322
1.01585
1.0304
1.02544
1.02628
1.01266
1.00977
1.00043
0.993596
0.990024
0.987549
0.986777
0.985943
0.985734
0.98507
0.982312
0.980295
0.987265
0.98242
0.963401
0.949127
0.961707
0.973915
0.977466
0.983167
0.980866
0.972046
0.957911
0.984047
0.977563
1.0057
0.996554
0.997021
1.00725
1.00678
1.01322
1.01265
1.01775
1.01781
1.02164
1.02131
1.02462
1.02413
1.02724
1.02709
1.02987
1.02963
1.03194
1.03217
1.03408
1.03416
1.03594
1.03664
1.03817
1.03777
1.03909
1.0394
1.04096
1.04169
1.04214
1.0428
1.04391
1.04403
1.0449
1.04481
1.04585
1.04571
1.04642
1.04662
1.04704
1.04723
1.04772
1.04781
1.04807
1.04836
1.04854
1.04871
1.04875
1.04889
1.04902
1.04922
1.04925
1.04933
1.04922
1.04927
1.04925
1.04922
1.0493
1.04925
1.04909
1.04875
1.04851
1.04811
1.04769
1.04712
1.04653
1.04588
1.04516
1.04427
1.04332
1.04239
1.04148
1.03896
1.03621
1.03593
1.03614
1.03452
1.03246
1.03025
1.02795
1.02549
1.02297
1.0195
1.01584
1.01155
1.00681
1.00237
0.998753
0.995664
0.993382
0.990615
0.990081
0.988426
0.989365
0.990531
0.990729
0.9946
0.994182
0.995632
0.997744
0.999601
1.00083
1.00203
1.0034
1.00363
1.00585
1.00648
1.00755
1.00835
1.00876
1.00951
1.0106
1.01126
1.01192
1.01206
1.01286
1.01325
1.01386
1.01467
1.01539
1.01637
1.01703
1.01796
1.019
1.02002
1.02119
1.02234
1.0238
1.02509
1.02629
1.02742
1.0289
1.03058
1.03246
1.0344
1.03678
1.03908
1.04142
1.04406
1.04755
1.05122
1.05484
1.05881
1.06359
1.06871
1.07417
1.0803
1.08666
1.09248
1.0963
1.09581
1.09413
1.0688
1.04789
1.00393
0.970281
0.940235
0.93302
0.936417
0.912525
0.895064
0.877302
0.872735
0.869977
0.866516
0.868831
0.868213
0.87269
0.87247
0.878116
0.882074
0.885032
0.888005
0.891307
0.896709
0.898797
0.901152
0.90385
0.907669
0.910447
0.912239
0.914124
0.916681
0.918757
0.921099
0.924
0.927047
0.92795
0.928191
0.931469
0.930179
0.933349
0.935839
0.938445
0.940712
0.943485
0.944697
0.946699
0.94853
0.949702
0.949755
0.949225
0.948597
0.950592
0.949878
0.951677
0.953568
0.953991
0.95514
0.955325
0.955705
0.955984
0.95577
0.955605
0.956819
0.956273
0.956388
0.9565
0.961178
0.953858
0.962887
0.951277
0.974196
0.977487
1.07878
1.08252
1.05679
1.04665
1.04124
1.03442
1.03126
1.02655
1.02625
1.02651
1.02815
1.02862
1.03102
1.03147
1.0347
1.0354
1.03873
1.03984
1.04243
1.04344
1.0449
1.04607
1.04609
1.04634
1.04594
1.04705
1.04799
1.04984
1.05073
1.05222
1.0531
1.05455
1.05531
1.0554
1.05501
1.05474
1.05463
1.05578
1.05693
1.05831
1.05934
1.05996
1.06045
1.06089
1.0612
1.06161
1.06195
1.06228
1.06262
1.06308
1.0634
1.06383
1.06415
1.06451
1.06488
1.06533
1.06575
1.06621
1.06655
1.0669
1.06709
1.06725
1.06725
1.06734
1.06732
1.06747
1.06745
1.06762
1.06762
1.06783
1.06776
1.06813
1.0682
1.06859
1.0686
1.06886
1.06846
1.06885
1.06649
1.06758
1.06418
1.0617
1.0469
1.04167
1.01099
0.981282
0.980233
0.974993
0.976772
0.976016
0.963845
0.948769
0.963589
0.983019
0.98795
0.980692
0.982488
0.985058
0.985718
0.9858
0.986787
0.987575
0.990044
0.993612
1.00051
1.00981
1.01271
1.02631
1.02546
1.03037
1.01576
1.01317
1.00771
1.00769
1.01323
1.01575
1.03036
1.02549
1.02627
1.0128
1.00972
1.00048
0.993579
0.989997
0.987581
0.986758
0.985874
0.985798
0.985062
0.982105
0.979757
0.986165
0.982045
0.96362
0.949654
0.959588
0.969564
0.974919
0.981041
0.983491
0.985619
0.982171
0.98433
0.984969
0.98409
0.99112
0.992624
0.999888
1.00057
1.00593
1.00676
1.01093
1.01193
1.01516
1.01606
1.01877
1.01915
1.02198
1.02232
1.02503
1.02521
1.0276
1.0281
1.03003
1.03051
1.03226
1.03305
1.03461
1.03466
1.03612
1.0366
1.03818
1.03896
1.0396
1.04049
1.04144
1.04183
1.04269
1.04271
1.04381
1.04372
1.04452
1.04465
1.04522
1.04536
1.04589
1.046
1.04627
1.04652
1.04671
1.04683
1.04686
1.04694
1.04705
1.04716
1.04713
1.04712
1.04692
1.04686
1.04672
1.04656
1.04647
1.04623
1.04585
1.04525
1.04476
1.04405
1.04331
1.04239
1.04143
1.04039
1.03923
1.03788
1.03642
1.03494
1.03337
1.03006
1.02673
1.02602
1.02554
1.02304
1.02012
1.01692
1.01361
1.01005
1.0064
1.00165
0.996783
0.991227
0.98543
0.980172
0.97599
0.972508
0.970067
0.967225
0.967032
0.96561
0.967223
0.968834
0.969631
0.974164
0.973976
0.976282
0.978777
0.981114
0.982771
0.984382
0.986179
0.986774
0.989465
0.990284
0.991736
0.992869
0.993548
0.994647
0.996072
0.996957
0.997924
0.998412
0.999565
1.0003
1.00134
1.00253
1.00374
1.00514
1.00634
1.00782
1.00952
1.01108
1.01297
1.01472
1.01703
1.0191
1.02127
1.02334
1.0259
1.02868
1.03175
1.0348
1.03839
1.04188
1.04547
1.04891
1.05303
1.05755
1.06234
1.06675
1.07163
1.07712
1.08197
1.08735
1.09255
1.09749
1.10128
1.1015
1.09479
1.08169
1.06643
1.03242
0.999148
0.964881
0.944382
0.936349
0.908671
0.887962
0.866537
0.85677
0.846903
0.837284
0.83614
0.831587
0.832849
0.830579
0.833781
0.836398
0.838694
0.841254
0.843588
0.849066
0.852296
0.854335
0.856437
0.860953
0.864169
0.866467
0.868692
0.871091
0.873397
0.875947
0.878885
0.882445
0.883357
0.883974
0.887707
0.886281
0.888691
0.891821
0.894605
0.89727
0.899836
0.901866
0.9039
0.906294
0.90756
0.908175
0.907582
0.907407
0.908756
0.908596
0.90989
0.912479
0.912387
0.914419
0.914202
0.915237
0.914759
0.915436
0.914546
0.916557
0.91535
0.916156
0.915312
0.919623
0.90979
0.911875
0.903569
0.912135
0.952314
1.01925
1.0908
1.07786
1.06466
1.05622
1.0477
1.04304
1.03823
1.03704
1.03659
1.03924
1.03905
1.04161
1.04149
1.04448
1.04433
1.04758
1.04759
1.05028
1.0506
1.05216
1.05279
1.05314
1.05364
1.05371
1.05515
1.05609
1.05769
1.05818
1.05926
1.05978
1.06084
1.0613
1.06145
1.06128
1.06127
1.06139
1.06252
1.06344
1.06422
1.06482
1.06522
1.06555
1.06586
1.06607
1.0664
1.06669
1.067
1.0673
1.06771
1.06803
1.06845
1.06879
1.06919
1.06952
1.06991
1.07023
1.07052
1.0707
1.07083
1.07081
1.07074
1.07048
1.0703
1.07002
1.06991
1.06964
1.06958
1.06937
1.06924
1.06903
1.06913
1.06909
1.06913
1.06903
1.06903
1.06911
1.06874
1.0679
1.0672
1.06764
1.06522
1.06383
1.06276
1.05236
1.0311
1.01107
0.987052
0.978238
0.979222
0.966378
0.94885
0.963922
0.983849
0.989005
0.981146
0.982664
0.985062
0.985658
0.985891
0.986812
0.987557
0.990078
0.993632
1.00042
1.00984
1.01271
1.02635
1.02543
1.03037
1.01584
1.01323
1.00774
1.0077
1.01322
1.01585
1.03041
1.02545
1.02626
1.01275
1.00968
1.00044
0.993565
0.989967
0.987537
0.986741
0.986013
0.985849
0.985037
0.981868
0.979098
0.984983
0.981772
0.96357
0.950218
0.957738
0.965609
0.970828
0.97765
0.97772
0.976652
0.977265
0.982936
0.984407
0.986269
0.985985
0.992097
0.995796
0.997024
1.00216
1.0026
1.00702
1.00774
1.01119
1.01203
1.01476
1.01529
1.01798
1.01863
1.02108
1.02167
1.02376
1.02458
1.02635
1.02708
1.02873
1.02971
1.03114
1.03142
1.0328
1.03341
1.03497
1.0357
1.03665
1.03718
1.03849
1.0387
1.03963
1.03978
1.04072
1.04077
1.04144
1.04166
1.04216
1.04238
1.04274
1.04296
1.04315
1.04335
1.04349
1.04357
1.04355
1.04357
1.0436
1.04361
1.04351
1.04338
1.04306
1.04288
1.04258
1.04226
1.04198
1.04154
1.04092
1.04007
1.03931
1.03829
1.03726
1.036
1.03468
1.03329
1.03173
1.02997
1.02808
1.02614
1.02409
1.02026
1.01643
1.01518
1.01411
1.01098
1.00743
1.00351
0.999509
0.995247
0.990951
0.985577
0.980234
0.974226
0.968198
0.962789
0.958643
0.955224
0.953035
0.950427
0.950614
0.949564
0.951629
0.953441
0.95486
0.959579
0.959792
0.96249
0.965266
0.968013
0.969926
0.971907
0.974002
0.975062
0.977909
0.979126
0.980991
0.98224
0.983502
0.984858
0.986689
0.987887
0.989274
0.990094
0.991739
0.992849
0.994315
0.996023
0.99766
0.999477
1.00117
1.00318
1.00526
1.0074
1.00966
1.01197
1.01456
1.01706
1.01932
1.02163
1.02424
1.02716
1.03009
1.03316
1.03658
1.03991
1.0431
1.04664
1.05083
1.05503
1.0592
1.06353
1.06873
1.07395
1.0797
1.08516
1.09008
1.0953
1.09767
1.09796
1.09344
1.07877
1.05983
1.0281
0.998997
0.968353
0.947774
0.939646
0.916731
0.896437
0.874379
0.862564
0.851592
0.842146
0.838136
0.832093
0.832731
0.827628
0.827361
0.828159
0.827183
0.827822
0.826976
0.830382
0.831081
0.832583
0.832948
0.835383
0.837823
0.839409
0.839603
0.841625
0.843194
0.845445
0.847512
0.850295
0.851802
0.851959
0.854582
0.853787
0.85602
0.858456
0.860754
0.863369
0.866192
0.867892
0.869678
0.872332
0.873766
0.874839
0.874326
0.873725
0.875757
0.875429
0.876824
0.879114
0.879297
0.881434
0.881507
0.882158
0.882694
0.882811
0.882493
0.883527
0.883663
0.883405
0.884175
0.886686
0.879216
0.880505
0.875447
0.882143
0.924309
0.99609
1.07106
1.0827
1.07583
1.067
1.05822
1.05248
1.04727
1.04466
1.04131
1.04287
1.04295
1.04481
1.04492
1.04727
1.04738
1.05022
1.05041
1.05296
1.05336
1.05498
1.05569
1.05631
1.05692
1.05718
1.05856
1.05939
1.06075
1.06107
1.06208
1.06261
1.06363
1.06414
1.06447
1.06452
1.06469
1.06487
1.06576
1.06654
1.06744
1.06814
1.06852
1.06884
1.06912
1.06931
1.06961
1.06987
1.07017
1.07044
1.07082
1.07112
1.07153
1.07185
1.07222
1.07248
1.07274
1.07294
1.07306
1.07307
1.073
1.07281
1.07253
1.0721
1.07171
1.07127
1.07098
1.07058
1.07035
1.07002
1.06976
1.06948
1.06937
1.06911
1.06897
1.0686
1.06847
1.06879
1.06785
1.06638
1.06624
1.06534
1.06481
1.06425
1.06534
1.06107
1.05586
1.04176
1.01005
0.985779
0.982369
0.968491
0.948941
0.964424
0.984821
0.989939
0.981423
0.982733
0.985075
0.98561
0.985717
0.986836
0.98757
0.990102
0.993661
1.00044
1.00987
1.01275
1.02638
1.02545
1.0305
1.0157
1.01318
1.00771
1.00773
1.01329
1.01576
1.03043
1.02553
1.02624
1.01281
1.00967
1.00045
0.99356
0.989943
0.987559
0.986713
0.985932
0.985877
0.985002
0.981665
0.978545
0.983878
0.981547
0.963754
0.950735
0.956572
0.962829
0.968086
0.974891
0.975951
0.976493
0.976256
0.979272
0.980698
0.983289
0.98645
0.988839
0.993004
0.994839
0.998709
1.00031
1.00346
1.00528
1.00766
1.00937
1.01134
1.01257
1.01471
1.01581
1.01787
1.01882
1.02065
1.02169
1.02326
1.02428
1.02571
1.02678
1.02802
1.02865
1.02982
1.03068
1.03196
1.03291
1.03363
1.03456
1.03541
1.03591
1.03672
1.03691
1.03784
1.03794
1.03853
1.03865
1.03929
1.03938
1.03973
1.03996
1.04011
1.04024
1.04034
1.04037
1.0403
1.04024
1.04022
1.04013
1.03995
1.03972
1.03928
1.03899
1.03854
1.03807
1.03762
1.03699
1.03618
1.03512
1.03413
1.03287
1.03159
1.03006
1.02848
1.0268
1.02494
1.02288
1.02066
1.0184
1.01597
1.01179
1.00767
1.00601
1.00446
1.00091
0.996987
0.992635
0.988262
0.983654
0.979071
0.973478
0.968053
0.96199
0.956068
0.950773
0.946839
0.943652
0.94174
0.939415
0.939974
0.939185
0.941529
0.943569
0.945274
0.950066
0.950629
0.953738
0.956565
0.959602
0.96179
0.964029
0.966528
0.967729
0.970931
0.9724
0.974481
0.976321
0.977702
0.979584
0.981711
0.983342
0.985108
0.98658
0.988544
0.990147
0.992184
0.994249
0.996403
0.99858
1.00078
1.00288
1.00537
1.00752
1.01012
1.01238
1.01538
1.01781
1.02051
1.02281
1.02553
1.02834
1.0315
1.03436
1.03799
1.04153
1.04512
1.04851
1.05281
1.05707
1.06173
1.06602
1.07099
1.07622
1.08148
1.08752
1.09133
1.09486
1.09719
1.09731
1.09189
1.08257
1.06763
1.04211
1.01473
0.985802
0.96158
0.949911
0.926226
0.904167
0.883876
0.87048
0.858451
0.845821
0.840501
0.8346
0.833878
0.827591
0.827342
0.824737
0.824765
0.826651
0.82488
0.825808
0.82512
0.825654
0.826147
0.82678
0.82648
0.827155
0.826658
0.826268
0.826232
0.827599
0.828587
0.830255
0.830799
0.830853
0.833636
0.831485
0.83313
0.835423
0.837981
0.840306
0.842445
0.844323
0.846333
0.848339
0.85
0.850588
0.850542
0.850453
0.851446
0.85158
0.853174
0.855406
0.855628
0.857246
0.858081
0.858613
0.859221
0.859021
0.859834
0.860131
0.861064
0.860021
0.861474
0.863036
0.857114
0.857666
0.855017
0.861549
0.902414
0.97449
1.04943
1.07758
1.08001
1.07324
1.06517
1.05898
1.05349
1.05021
1.0459
1.04521
1.04529
1.04667
1.04682
1.04875
1.049
1.05152
1.05191
1.05427
1.05484
1.05647
1.0573
1.05808
1.05875
1.0591
1.06036
1.06115
1.06241
1.06273
1.06368
1.06422
1.06514
1.06568
1.0661
1.06629
1.06657
1.06682
1.06763
1.0684
1.06937
1.07
1.07039
1.0707
1.07096
1.07116
1.07144
1.07169
1.07196
1.07224
1.07262
1.07292
1.07333
1.07365
1.07395
1.07417
1.07436
1.07448
1.07451
1.07443
1.07428
1.074
1.07363
1.07312
1.07263
1.07211
1.07172
1.07126
1.07093
1.07056
1.07024
1.06989
1.06968
1.06938
1.06903
1.06853
1.06834
1.06839
1.06752
1.06637
1.06588
1.06477
1.06427
1.06334
1.06457
1.06099
1.05797
1.05664
1.04981
1.00033
0.991868
0.970132
0.94933
0.965085
0.985739
0.990763
0.981561
0.982713
0.985096
0.985636
0.985833
0.986857
0.98756
0.990126
0.993683
1.00035
1.00989
1.01266
1.02641
1.02543
1.03047
1.01586
1.01316
1.00775
1.0077
1.01325
1.01585
1.03038
1.02549
1.02619
1.01276
1.00966
1.00042
0.993548
0.989911
0.987529
0.986707
0.986053
0.985914
0.98497
0.98145
0.977985
0.98274
0.98141
0.963959
0.951294
0.955371
0.960242
0.965095
0.97203
0.973236
0.972997
0.975067
0.97774
0.980273
0.982484
0.98362
0.988143
0.990034
0.993061
0.995736
0.997789
1.00055
1.00233
1.00468
1.00626
1.00834
1.00949
1.01158
1.01281
1.01469
1.01579
1.01752
1.01861
1.02017
1.0212
1.02261
1.02368
1.02494
1.02554
1.02681
1.02759
1.02894
1.02975
1.03075
1.03126
1.03249
1.03273
1.03359
1.03392
1.03464
1.03488
1.03531
1.03553
1.03602
1.03621
1.0364
1.0367
1.03676
1.03684
1.03687
1.03687
1.03672
1.03661
1.03649
1.03631
1.03603
1.03569
1.03515
1.03472
1.03412
1.03351
1.03288
1.03208
1.03107
1.02982
1.02861
1.02712
1.02562
1.02386
1.02204
1.02013
1.01801
1.0157
1.01322
1.01069
1.00797
1.00353
0.999186
0.997203
0.995306
0.9915
0.987372
0.982782
0.978269
0.973548
0.968928
0.963371
0.958097
0.952191
0.94652
0.941471
0.937903
0.934997
0.933415
0.931408
0.932253
0.931849
0.934426
0.936631
0.938782
0.943583
0.944521
0.947739
0.950807
0.954087
0.956456
0.959001
0.961608
0.963326
0.966571
0.968525
0.970923
0.972875
0.974777
0.976792
0.979339
0.981217
0.983363
0.984737
0.987023
0.988831
0.990872
0.993028
0.995164
0.997484
0.999694
1.00191
1.0042
1.00644
1.00892
1.01137
1.01414
1.01664
1.01909
1.02166
1.02435
1.0271
1.03006
1.03314
1.03649
1.04014
1.04343
1.04705
1.05108
1.05537
1.05967
1.06402
1.06876
1.07415
1.07911
1.08556
1.0902
1.09387
1.0958
1.09535
1.09008
1.08019
1.06484
1.04043
1.01356
0.987122
0.964056
0.952575
0.932022
0.911788
0.890315
0.876175
0.863011
0.852874
0.848429
0.840407
0.839633
0.833066
0.830654
0.83157
0.830189
0.83025
0.828829
0.829745
0.828408
0.829231
0.828644
0.829648
0.82796
0.828417
0.826918
0.826242
0.82489
0.825445
0.8252
0.824989
0.824323
0.822578
0.823447
0.821077
0.821394
0.821973
0.82328
0.824388
0.826
0.826544
0.828179
0.830116
0.831522
0.831744
0.831814
0.83064
0.832569
0.831867
0.833789
0.835386
0.835798
0.837717
0.838394
0.83823
0.839804
0.839343
0.840276
0.839946
0.841865
0.839869
0.842459
0.843503
0.838681
0.838137
0.837809
0.843521
0.882704
0.954786
1.02618
1.06616
1.0793
1.07672
1.07042
1.06433
1.05882
1.05513
1.05067
1.0482
1.04734
1.04835
1.04841
1.04999
1.05026
1.05248
1.053
1.05518
1.05591
1.05753
1.05847
1.05938
1.0601
1.06052
1.06164
1.0624
1.06356
1.06395
1.06482
1.06535
1.06619
1.06675
1.06726
1.06755
1.06792
1.06824
1.06901
1.06979
1.07075
1.07133
1.07174
1.07205
1.07231
1.07252
1.0728
1.07307
1.07333
1.07362
1.074
1.07431
1.0747
1.07502
1.07528
1.07547
1.07561
1.07567
1.07565
1.07552
1.07531
1.07499
1.07456
1.07401
1.07347
1.07291
1.07247
1.07197
1.07159
1.07118
1.07081
1.07042
1.07019
1.0699
1.06938
1.0688
1.06849
1.06855
1.06741
1.06658
1.06581
1.06423
1.06425
1.06297
1.06405
1.06087
1.05789
1.06827
1.0728
1.02596
0.99885
0.972961
0.950012
0.965958
0.986777
0.991408
0.981466
0.982707
0.985113
0.985627
0.985684
0.986882
0.987552
0.990152
0.993713
1.00035
1.00991
1.01276
1.02642
1.0254
1.03039
1.01575
1.01314
1.00766
1.00771
1.01333
1.01574
1.03035
1.02554
1.02615
1.01274
1.00964
1.00039
0.99354
0.989884
0.987555
0.986681
0.985972
0.985966
0.984952
0.981218
0.977437
0.981889
0.98125
0.964082
0.951832
0.954507
0.958003
0.962112
0.969179
0.970721
0.971228
0.972338
0.974689
0.977146
0.979607
0.982672
0.984611
0.988074
0.990047
0.992988
0.994952
0.997442
0.999381
1.00148
1.00317
1.00514
1.00633
1.00838
1.00963
1.01144
1.01255
1.01425
1.01536
1.01687
1.01797
1.01934
1.02041
1.02158
1.02241
1.02348
1.02445
1.02556
1.02656
1.02731
1.02816
1.02901
1.02938
1.03032
1.0305
1.03129
1.03151
1.03191
1.03203
1.03261
1.03266
1.03283
1.03315
1.03315
1.03315
1.03312
1.03307
1.03285
1.03266
1.03245
1.03218
1.03181
1.03134
1.03069
1.03013
1.02938
1.02863
1.02783
1.02685
1.02566
1.02423
1.02283
1.02115
1.01946
1.01749
1.01549
1.01336
1.01104
1.00854
1.00587
1.00315
1.00021
0.995608
0.991175
0.988985
0.986852
0.982936
0.978765
0.974133
0.96966
0.965017
0.960524
0.95519
0.950208
0.944567
0.939302
0.934576
0.931298
0.928844
0.927454
0.925891
0.926999
0.926873
0.92965
0.932222
0.934508
0.939602
0.940908
0.944626
0.947898
0.951731
0.954452
0.957392
0.96067
0.962411
0.966121
0.968229
0.97082
0.973315
0.975175
0.977426
0.979797
0.981949
0.984073
0.985771
0.98779
0.989734
0.991903
0.994017
0.996238
0.998435
1.00075
1.00277
1.00537
1.0075
1.0101
1.01229
1.01519
1.01763
1.02033
1.02263
1.02558
1.02846
1.0316
1.03461
1.03792
1.04145
1.04495
1.04877
1.05247
1.05702
1.06109
1.06596
1.06995
1.07572
1.07924
1.08527
1.08913
1.09284
1.09438
1.09377
1.08863
1.08205
1.06669
1.04723
1.0235
0.999091
0.976168
0.960455
0.938886
0.918849
0.897228
0.884607
0.870298
0.856997
0.849155
0.841097
0.838945
0.833271
0.830406
0.828781
0.829708
0.827912
0.827426
0.826664
0.826893
0.827237
0.826926
0.827348
0.825877
0.826308
0.824646
0.823789
0.823732
0.822265
0.821945
0.821864
0.821853
0.81922
0.821145
0.816159
0.816622
0.815238
0.816492
0.816199
0.817008
0.816347
0.817605
0.817654
0.819013
0.818102
0.817454
0.816797
0.816902
0.816327
0.818119
0.819884
0.820515
0.820939
0.822218
0.822265
0.823534
0.822404
0.823993
0.823361
0.825281
0.823293
0.825576
0.826506
0.822417
0.821691
0.821922
0.827963
0.864829
0.936832
1.00585
1.04999
1.07395
1.07723
1.07382
1.06853
1.06334
1.05949
1.05517
1.05186
1.04966
1.05003
1.04994
1.0512
1.0514
1.05334
1.05391
1.05589
1.05674
1.05833
1.05938
1.06038
1.06115
1.06163
1.06264
1.06335
1.06442
1.06488
1.06568
1.06619
1.06697
1.06755
1.06814
1.06852
1.06896
1.06935
1.0701
1.07089
1.07181
1.07237
1.07279
1.0731
1.07338
1.07361
1.07389
1.07417
1.07444
1.07473
1.07512
1.07544
1.07582
1.07614
1.07637
1.07653
1.07663
1.07666
1.0766
1.07645
1.07622
1.07587
1.07543
1.07487
1.0743
1.07373
1.07326
1.07274
1.07234
1.07192
1.07152
1.07113
1.0709
1.07061
1.07015
1.06957
1.06916
1.06902
1.06809
1.06712
1.06632
1.06462
1.06459
1.06286
1.06368
1.06076
1.06004
1.07516
1.06719
1.05014
1.01099
0.97753
0.951089
0.967118
0.987963
0.991977
0.981065
0.982677
0.985132
0.985666
0.985792
0.986907
0.987535
0.990184
0.993739
1.00033
1.00993
1.01272
1.02645
1.02542
1.03032
1.01587
1.01317
1.00775
1.00773
1.01334
1.01573
1.0304
1.02548
1.0261
1.01273
1.00961
1.00033
0.993529
0.989855
0.987513
0.986676
0.986058
0.986006
0.984954
0.980965
0.976843
0.982897
0.981075
0.964147
0.952475
0.953878
0.95644
0.959676
0.966659
0.967432
0.96867
0.971098
0.972557
0.976102
0.977677
0.980143
0.982822
0.985214
0.98772
0.990039
0.992173
0.994292
0.996325
0.998219
0.999961
1.00181
1.00308
1.00501
1.0063
1.00811
1.00913
1.01091
1.01195
1.01351
1.01452
1.0159
1.01693
1.01817
1.0189
1.0201
1.02097
1.02213
1.02307
1.02393
1.02459
1.02553
1.02589
1.02664
1.02708
1.02763
1.02794
1.02827
1.02841
1.02881
1.02895
1.02905
1.02933
1.02928
1.02922
1.02909
1.02902
1.02871
1.02846
1.02816
1.02778
1.02731
1.02672
1.02597
1.02528
1.02439
1.02349
1.02253
1.0214
1.02005
1.01847
1.0169
1.01506
1.01322
1.01109
1.00896
1.00669
1.00422
1.0016
0.998815
0.995991
0.99293
0.988279
0.983865
0.981613
0.979368
0.975481
0.971416
0.966915
0.962633
0.958194
0.953927
0.948945
0.944426
0.939209
0.934356
0.930204
0.926662
0.925062
0.923566
0.9228
0.923867
0.924593
0.927337
0.930449
0.932919
0.938361
0.93977
0.943779
0.947018
0.951085
0.953725
0.95693
0.959738
0.962001
0.965307
0.967771
0.970017
0.972587
0.974533
0.976795
0.979171
0.981078
0.983462
0.984865
0.987107
0.989115
0.991125
0.993343
0.995427
0.997739
0.999783
1.00216
1.00456
1.00682
1.00914
1.01163
1.01416
1.01701
1.01935
1.0221
1.02446
1.02764
1.03045
1.03385
1.03664
1.04075
1.04347
1.04804
1.05111
1.05619
1.05954
1.06509
1.06863
1.07467
1.07868
1.08358
1.08839
1.09148
1.09268
1.09229
1.08638
1.07813
1.06511
1.04583
1.024
1.00034
0.977457
0.963405
0.943985
0.925189
0.902843
0.889686
0.874128
0.863173
0.856767
0.847259
0.845055
0.837893
0.83632
0.836207
0.833591
0.832594
0.831566
0.832201
0.831146
0.830931
0.831909
0.830645
0.830455
0.828784
0.828418
0.827811
0.826146
0.826451
0.825546
0.825257
0.824432
0.822083
0.823783
0.820377
0.819195
0.818449
0.817923
0.818113
0.818534
0.817631
0.817446
0.81726
0.817143
0.814625
0.813647
0.810484
0.810697
0.808249
0.808993
0.809582
0.808713
0.809911
0.810042
0.809068
0.810168
0.80957
0.810558
0.809339
0.81174
0.808653
0.8112
0.812365
0.808388
0.807862
0.808075
0.814587
0.848856
0.920121
0.987107
1.03114
1.06449
1.07464
1.0752
1.07144
1.06698
1.06322
1.0592
1.05571
1.05248
1.0519
1.05154
1.05249
1.05257
1.05419
1.05475
1.05652
1.05743
1.05897
1.0601
1.06118
1.06199
1.06253
1.06345
1.06412
1.06508
1.06561
1.06633
1.06684
1.06759
1.06819
1.06882
1.06928
1.06979
1.07025
1.07101
1.0718
1.07266
1.07321
1.07365
1.07399
1.07429
1.07453
1.07482
1.07512
1.0754
1.07569
1.07606
1.0764
1.07677
1.07708
1.07729
1.07743
1.07751
1.07751
1.07744
1.07727
1.07703
1.07669
1.07625
1.0757
1.07512
1.07456
1.07407
1.07355
1.07316
1.07274
1.07233
1.07193
1.07168
1.07146
1.07106
1.0706
1.07026
1.06988
1.06919
1.06872
1.06773
1.06621
1.06593
1.06414
1.06501
1.06287
1.06466
1.07759
1.05853
1.06588
1.03749
0.984854
0.952786
0.968637
0.989352
0.992481
0.98039
0.982601
0.985182
0.985696
0.985671
0.986941
0.987523
0.990214
0.993765
1.00032
1.00995
1.01272
1.0265
1.02543
1.03056
1.01571
1.01316
1.00763
1.00773
1.0134
1.01572
1.03034
1.02549
1.02611
1.01272
1.00961
1.00023
0.993518
0.989824
0.987531
0.986665
0.986013
0.986028
0.984997
0.980706
0.976316
0.985751
0.980872
0.964052
0.953274
0.953425
0.955311
0.957388
0.963379
0.965328
0.966491
0.968094
0.969987
0.97312
0.975091
0.977926
0.979772
0.982772
0.984531
0.98733
0.98891
0.991277
0.993065
0.994915
0.996716
0.998317
0.999884
1.00137
1.00305
1.00441
1.00576
1.0072
1.00851
1.00982
1.01101
1.01226
1.01337
1.01452
1.01545
1.01647
1.0174
1.01847
1.0194
1.02023
1.02083
1.02181
1.02203
1.02306
1.02323
1.02382
1.02414
1.02445
1.02456
1.0249
1.02497
1.02506
1.02531
1.02518
1.02507
1.02488
1.02476
1.02436
1.02404
1.02365
1.02318
1.0226
1.02192
1.02106
1.02024
1.01922
1.01821
1.0171
1.01585
1.01437
1.01267
1.01097
1.00903
1.00708
1.00485
1.00264
1.00029
0.997766
0.995114
0.992301
0.989465
0.986378
0.981821
0.977599
0.975406
0.973166
0.969479
0.965585
0.961441
0.957482
0.953478
0.94966
0.945411
0.940992
0.936322
0.931829
0.928211
0.925375
0.924366
0.922864
0.923014
0.92316
0.925249
0.926802
0.931266
0.932444
0.939216
0.939457
0.944738
0.94675
0.952158
0.953396
0.957958
0.959781
0.962721
0.96538
0.96872
0.969937
0.973683
0.974234
0.977924
0.979069
0.982261
0.983322
0.986237
0.986964
0.990317
0.990899
0.994483
0.995339
0.998947
0.999968
1.00313
1.00478
1.00775
1.00947
1.01259
1.01449
1.01783
1.01971
1.02323
1.02498
1.02875
1.03077
1.03498
1.03716
1.04198
1.04408
1.04917
1.05189
1.05708
1.06031
1.06527
1.06933
1.07422
1.07889
1.08289
1.08683
1.09007
1.09116
1.0905
1.085
1.08045
1.06692
1.05062
1.03028
1.00806
0.986766
0.970783
0.949566
0.930625
0.910158
0.896167
0.880943
0.866859
0.858821
0.847366
0.844848
0.838928
0.837337
0.833034
0.832975
0.832226
0.829492
0.828921
0.828711
0.829828
0.82824
0.828988
0.827409
0.827856
0.826358
0.825029
0.824052
0.824132
0.82317
0.824017
0.822805
0.821242
0.821957
0.817956
0.816849
0.816957
0.816192
0.816647
0.815934
0.815836
0.815223
0.815452
0.815079
0.813779
0.810643
0.809374
0.806666
0.804763
0.804482
0.805115
0.803959
0.803015
0.80247
0.801635
0.801492
0.799571
0.800034
0.79925
0.800421
0.798402
0.799455
0.800928
0.796882
0.796852
0.79643
0.803478
0.83442
0.904603
0.970086
1.0119
1.05178
1.06891
1.0743
1.07285
1.06962
1.06624
1.06265
1.05933
1.05568
1.05404
1.05324
1.05389
1.05382
1.05512
1.05561
1.05714
1.05805
1.05951
1.0607
1.06183
1.06268
1.06326
1.06413
1.06479
1.06563
1.0662
1.06687
1.06736
1.06809
1.0687
1.06938
1.0699
1.07047
1.071
1.07177
1.07256
1.07338
1.07393
1.0744
1.07476
1.07508
1.07535
1.07565
1.07596
1.07624
1.07654
1.07691
1.07724
1.07761
1.0779
1.07811
1.07822
1.07828
1.07828
1.0782
1.07803
1.07779
1.07746
1.07704
1.07651
1.07595
1.07539
1.07491
1.0744
1.07402
1.07362
1.07323
1.07284
1.07258
1.0724
1.07215
1.07179
1.07145
1.07117
1.07053
1.07023
1.06953
1.06856
1.06783
1.06657
1.06734
1.06615
1.06667
1.07364
1.05647
1.07564
1.02379
0.993147
0.955105
0.970555
0.990985
0.992921
0.979468
0.982513
0.985244
0.985739
0.985768
0.986968
0.987495
0.99025
0.993788
1.00038
1.00995
1.01271
1.02654
1.02544
1.03069
1.01592
1.01319
1.00767
1.00772
1.01338
1.01571
1.03033
1.02547
1.02613
1.0127
1.00967
1.00011
0.993504
0.989791
0.98751
0.986659
0.986062
0.986022
0.985042
0.980528
0.976195
0.987995
0.980606
0.96411
0.953821
0.953127
0.954726
0.955409
0.959834
0.962903
0.963626
0.966729
0.968194
0.971328
0.972796
0.975268
0.977699
0.979533
0.982259
0.983881
0.986242
0.987831
0.98997
0.991483
0.993348
0.994931
0.996324
0.998007
0.999305
1.00104
1.002
1.00372
1.0048
1.00625
1.00727
1.00858
1.00961
1.01082
1.01168
1.01274
1.01369
1.01464
1.01569
1.01634
1.01719
1.01783
1.01836
1.01897
1.01942
1.01988
1.02012
1.02052
1.02055
1.02081
1.02089
1.02094
1.02107
1.02098
1.02078
1.02052
1.02035
1.01987
1.0195
1.01902
1.01844
1.01779
1.017
1.01607
1.01513
1.01402
1.01291
1.01168
1.01035
1.00877
1.00701
1.00523
1.00324
1.00126
0.999005
0.996797
0.994442
0.991943
0.98935
0.986612
0.983873
0.980889
0.976614
0.97267
0.970695
0.968525
0.965681
0.962044
0.958242
0.954668
0.951126
0.94768
0.943923
0.939799
0.935599
0.931071
0.92797
0.925131
0.924343
0.922802
0.922979
0.92316
0.925362
0.926947
0.931402
0.932729
0.939375
0.939677
0.944794
0.946881
0.952211
0.953445
0.958026
0.959608
0.962779
0.965113
0.968585
0.969879
0.973497
0.974251
0.977621
0.97883
0.981918
0.983111
0.98589
0.986962
0.989905
0.990905
0.994235
0.995174
0.998699
0.999673
1.00314
1.00419
1.00799
1.00907
1.01276
1.01403
1.01782
1.01909
1.02297
1.02472
1.02865
1.03071
1.03479
1.03698
1.04138
1.0439
1.0482
1.05163
1.05589
1.06025
1.06403
1.06871
1.07278
1.07765
1.08185
1.08584
1.08851
1.08954
1.08899
1.08309
1.0759
1.06443
1.04834
1.02985
1.00875
0.988764
0.972165
0.952414
0.934751
0.916485
0.899498
0.886245
0.871448
0.865256
0.854313
0.852853
0.843351
0.842581
0.83745
0.837107
0.834608
0.834787
0.833662
0.834944
0.832452
0.83217
0.833362
0.832096
0.831231
0.830528
0.828747
0.828231
0.82757
0.827189
0.82702
0.826238
0.823968
0.825422
0.821454
0.82073
0.819093
0.818954
0.819487
0.818594
0.818115
0.81806
0.81755
0.817502
0.816088
0.813917
0.810258
0.809902
0.80748
0.806067
0.806304
0.803838
0.80437
0.802686
0.800484
0.799666
0.798062
0.797673
0.794658
0.795932
0.791572
0.792066
0.793
0.788736
0.788496
0.788414
0.7947
0.821361
0.8904
0.954996
0.993021
1.03675
1.06028
1.07101
1.07258
1.07107
1.0684
1.06541
1.06244
1.05891
1.0565
1.05509
1.05539
1.05516
1.05613
1.05651
1.0578
1.05866
1.05999
1.06121
1.06238
1.06325
1.06387
1.06472
1.06538
1.0661
1.06667
1.0673
1.06779
1.06852
1.06914
1.06984
1.07042
1.07104
1.07163
1.07241
1.07321
1.074
1.07457
1.07506
1.07545
1.0758
1.07609
1.07641
1.07673
1.07701
1.07732
1.07768
1.07801
1.07837
1.07865
1.07885
1.07895
1.079
1.07899
1.0789
1.07874
1.07852
1.07821
1.07781
1.07732
1.07677
1.07624
1.07576
1.07528
1.07491
1.07452
1.07418
1.0738
1.07353
1.07333
1.07319
1.07297
1.07262
1.07242
1.07199
1.07185
1.07137
1.07075
1.07029
1.06908
1.07023
1.06897
1.07024
1.07241
1.05679
1.06324
1.03772
1.00694
0.958374
0.972921
0.99288
0.99327
0.978353
0.982452
0.985324
0.985767
0.985689
0.987004
0.987475
0.990284
0.993815
1.00036
1.00997
1.01272
1.02657
1.02546
1.03083
1.01564
1.01318
1.00766
1.00773
1.01343
1.01569
1.03041
1.02541
1.02619
1.01265
1.00974
1.00006
0.993484
0.989756
0.987525
0.986652
0.986046
0.986063
0.985021
0.9806
0.977272
0.988725
0.980249
0.964001
0.95396
0.953335
0.954389
0.953443
0.958134
0.960753
0.961612
0.963958
0.96559
0.96859
0.970275
0.972847
0.974783
0.977082
0.978994
0.981101
0.982996
0.984765
0.986712
0.988101
0.990162
0.991225
0.993176
0.994185
0.996009
0.99717
0.998559
0.999912
1.00122
1.00246
1.0036
1.0048
1.00584
1.00712
1.00792
1.00902
1.00979
1.01091
1.01168
1.01258
1.01294
1.01411
1.01422
1.01513
1.01539
1.01574
1.01613
1.01645
1.01647
1.01664
1.01673
1.01675
1.01682
1.01664
1.01644
1.01611
1.01588
1.01536
1.01491
1.01438
1.01372
1.013
1.01214
1.01114
1.01012
1.00894
1.00777
1.00647
1.0051
1.00349
1.00173
0.999938
0.997973
0.996023
0.993832
0.991719
0.98946
0.987097
0.984675
0.982117
0.979603
0.976988
0.973463
0.970008
0.968039
0.966281
0.963599
0.960383
0.957038
0.95383
0.95055
0.947292
0.943647
0.939778
0.935521
0.931056
0.928172
0.925315
0.924561
0.923005
0.923172
0.923647
0.925444
0.927287
0.931551
0.932865
0.939184
0.939816
0.944934
0.946931
0.952231
0.953558
0.957993
0.960019
0.962805
0.965368
0.968487
0.970048
0.973611
0.974185
0.978
0.979101
0.982179
0.983184
0.986103
0.987067
0.990354
0.99108
0.994526
0.995582
0.998907
1.00005
1.00313
1.00476
1.008
1.0095
1.01288
1.01466
1.01811
1.02003
1.02312
1.02529
1.02864
1.03116
1.03517
1.0376
1.04197
1.04453
1.04877
1.05234
1.05589
1.06072
1.0646
1.06886
1.07292
1.07684
1.08062
1.08437
1.08699
1.08789
1.08718
1.08184
1.07684
1.06606
1.05228
1.0332
1.01478