/*--------------------------------*- C++ -*----------------------------------*\
| =========                 |                                                 |
| \\      /  F ield         | OpenFOAM: The Open Source CFD Toolbox           |
|  \\    /   O peration     | Version:  v2006                                 |
|   \\  /    A nd           | Website:  www.openfoam.com                      |
|    \\/     M anipulation  |                                                 |
\*---------------------------------------------------------------------------*/
FoamFile
{
    version     2.0;
    format      ascii;
    class       volVectorField;
    location    "220";
    object      U;
}
// * * * * * * * * * * * * * * * * * * * * * * * * * * * * * * * * * * * * * //

dimensions      [0 1 -1 0 0 0 0];


internalField   nonuniform List<vector> 
93840
(
(0.869922 0.0494658 6.99395e-17)
(0.844108 0.0129612 8.48958e-17)
(0.837264 0.021055 -4.19552e-17)
(0.811861 -0.0188545 4.1087e-16)
(0.802732 0.0310421 4.23622e-16)
(0.822305 -0.0172115 5.96819e-17)
(0.830925 0.051648 -2.08114e-16)
(0.852521 0.024984 -1.07405e-16)
(0.861731 0.052054 -4.78613e-17)
(0.877543 0.0548071 -1.44008e-16)
(0.888509 0.0704965 -1.77758e-17)
(0.900903 0.0747232 1.29473e-17)
(0.902007 0.0739313 -1.59936e-17)
(0.897584 0.0771373 1.092e-16)
(0.896 0.0795232 6.93331e-17)
(0.888511 0.0824966 9.88298e-17)
(0.905982 0.105152 9.91259e-17)
(0.939519 0.0826523 1.04445e-16)
(0.886077 0.0346062 9.73571e-17)
(0.854652 0.0949968 8.82394e-17)
(0.937474 0.181465 8.2007e-17)
(1.02851 0.165762 7.68152e-17)
(0.992841 0.0563812 7.59834e-17)
(0.92647 0.060688 7.37876e-17)
(0.906469 0.076684 7.00648e-17)
(0.87358 0.0104533 6.88169e-17)
(0.85949 0.0373827 6.70455e-17)
(0.897411 0.057832 6.38335e-17)
(0.948143 0.015313 5.6576e-17)
(0.825706 0.0118843 5.76709e-17)
(0.853268 0.00824355 5.4316e-17)
(0.711854 0.000587226 5.51354e-17)
(0.755219 -0.0348044 5.39361e-17)
(0.752397 -0.0361663 5.4675e-17)
(0.699998 -0.0396613 5.41065e-17)
(0.705258 -0.0358427 5.42399e-17)
(0.668602 -0.036109 5.42416e-17)
(0.674093 -0.0344154 5.38701e-17)
(0.641099 -0.0324856 5.40398e-17)
(0.649121 -0.0307913 5.38743e-17)
(0.618007 -0.0276492 5.41641e-17)
(0.629263 -0.0267976 5.36266e-17)
(0.600066 -0.0237817 5.41443e-17)
(0.61037 -0.0235454 5.34521e-17)
(0.58401 -0.0209901 5.39947e-17)
(0.592851 -0.0206837 5.35418e-17)
(0.567216 -0.0175267 5.37456e-17)
(0.575208 -0.0165453 5.34473e-17)
(0.553282 -0.0142836 5.37647e-17)
(0.558717 -0.0133405 5.32397e-17)
(0.539633 -0.0105478 5.36339e-17)
(0.543594 -0.00946545 5.31877e-17)
(0.526673 -0.0083416 5.33321e-17)
(0.525409 -0.00576417 5.30525e-17)
(0.512359 -0.00163098 5.32315e-17)
(0.517213 -0.00025425 5.29388e-17)
(0.50632 0.000275197 5.30257e-17)
(0.505562 0.000495423 5.27703e-17)
(0.492047 0.00186829 5.27282e-17)
(0.489018 0.00491793 5.2623e-17)
(0.482775 0.0069424 5.24359e-17)
(0.479323 0.00812386 5.23184e-17)
(0.470145 0.0105706 5.21855e-17)
(0.469794 0.0136774 5.20135e-17)
(0.463596 0.0146702 5.20486e-17)
(0.462034 0.016899 5.15497e-17)
(0.456129 0.0191924 5.16154e-17)
(0.456688 0.0206314 5.12033e-17)
(0.450727 0.0222352 5.12822e-17)
(0.450459 0.0241593 5.08836e-17)
(0.445976 0.0257783 5.07342e-17)
(0.445387 0.0274219 5.06305e-17)
(0.441903 0.0293909 5.01886e-17)
(0.441649 0.0309823 5.00565e-17)
(0.43902 0.0323842 4.86957e-17)
(0.438517 0.0341997 4.80284e-17)
(0.436993 0.0356387 4.80738e-17)
(0.436731 0.0374311 4.71405e-17)
(0.436012 0.0390491 4.65685e-17)
(0.436753 0.0403793 4.53592e-17)
(0.435507 0.0417436 4.42267e-17)
(0.435978 0.0433223 4.36267e-17)
(0.435398 0.0450212 4.26422e-17)
(0.437227 0.0469045 4.19197e-17)
(0.438246 0.0482655 4.0305e-17)
(0.439761 0.0498152 4.0056e-17)
(0.441422 0.0512828 3.89918e-17)
(0.442963 0.0526252 3.7647e-17)
(0.444307 0.0541409 3.7267e-17)
(0.446253 0.0560001 3.63484e-17)
(0.449686 0.058107 3.79063e-17)
(0.454041 0.0597718 3.65484e-17)
(0.458103 0.061392 3.6616e-17)
(0.462998 0.0630796 3.65348e-17)
(0.467858 0.0647431 3.90436e-17)
(0.47415 0.0665191 3.97736e-17)
(0.480086 0.0679192 4.31313e-17)
(0.486607 0.0695185 4.18539e-17)
(0.493393 0.0710572 4.53556e-17)
(0.501334 0.0727662 4.92276e-17)
(0.509774 0.0740808 4.85507e-17)
(0.517883 0.0753605 5.25769e-17)
(0.526264 0.0776256 5.70469e-17)
(0.545 0.0820058 5.48333e-17)
(0.565457 0.0816591 5.844e-17)
(0.569938 0.0777026 5.41501e-17)
(0.571314 0.0782645 6.17838e-17)
(0.584224 0.0814985 5.72435e-17)
(0.59984 0.0822901 6.71992e-17)
(0.616406 0.0826982 6.15673e-17)
(0.632961 0.0823819 6.82707e-17)
(0.650053 0.0818888 6.18311e-17)
(0.666716 0.0810055 6.86809e-17)
(0.68817 0.0808945 6.43089e-17)
(0.709958 0.0785995 7.20534e-17)
(0.733562 0.0763459 7.01936e-17)
(0.757979 0.0732327 7.27158e-17)
(0.780685 0.0702682 7.25082e-17)
(0.798834 0.0642868 7.47658e-17)
(0.813761 0.0589297 7.43503e-17)
(0.824856 0.0509926 7.59991e-17)
(0.838117 0.0453437 7.69986e-17)
(0.841375 0.0343357 7.78275e-17)
(0.848413 0.0274028 7.8048e-17)
(0.84545 0.0152727 7.94357e-17)
(0.839227 0.00940393 7.91741e-17)
(0.839052 -0.000703422 8.12739e-17)
(0.822233 -0.00788522 8.1376e-17)
(0.823376 -0.0126546 8.36733e-17)
(0.816358 -0.0219831 8.41441e-17)
(0.806958 -0.0266073 8.63354e-17)
(0.799064 -0.0327185 8.67782e-17)
(0.791979 -0.0368571 8.87851e-17)
(0.787143 -0.0412805 8.84834e-17)
(0.780569 -0.0456212 9.06115e-17)
(0.778391 -0.0508462 8.93527e-17)
(0.768995 -0.0537738 9.18155e-17)
(0.765733 -0.0576162 9.1727e-17)
(0.760836 -0.0602552 9.37781e-17)
(0.757366 -0.0638647 9.39576e-17)
(0.754943 -0.067563 9.61079e-17)
(0.751727 -0.0710893 9.57631e-17)
(0.746412 -0.0752321 9.78607e-17)
(0.743329 -0.0775315 9.97376e-17)
(0.740312 -0.0820161 1.00419e-16)
(0.738409 -0.0844275 1.00937e-16)
(0.735472 -0.0895818 1.01706e-16)
(0.733025 -0.0924799 1.00956e-16)
(0.729354 -0.0981009 1.00773e-16)
(0.72482 -0.100782 1.0041e-16)
(0.720706 -0.105694 9.83898e-17)
(0.716476 -0.108675 9.85639e-17)
(0.711714 -0.114039 9.70026e-17)
(0.706628 -0.11748 9.73656e-17)
(0.700524 -0.122445 9.6348e-17)
(0.695302 -0.126347 9.62027e-17)
(0.689042 -0.13118 9.57042e-17)
(0.682601 -0.135347 9.64622e-17)
(0.673974 -0.139683 9.59348e-17)
(0.6655 -0.142865 9.75756e-17)
(0.658469 -0.147008 9.72161e-17)
(0.651989 -0.152241 9.88721e-17)
(0.643517 -0.158105 9.85335e-17)
(0.633787 -0.163572 1.00075e-16)
(0.622954 -0.169329 9.988e-17)
(0.61062 -0.175051 1.01352e-16)
(0.595703 -0.179985 1.01242e-16)
(0.581033 -0.184118 1.02909e-16)
(0.56701 -0.189683 1.01464e-16)
(0.55052 -0.195883 1.04077e-16)
(0.528012 -0.201788 1.03503e-16)
(0.503717 -0.206547 1.04881e-16)
(0.480054 -0.2092 1.0358e-16)
(0.454799 -0.210428 1.04967e-16)
(0.420186 -0.213481 1.05676e-16)
(0.382192 -0.210748 1.05362e-16)
(0.335481 -0.205982 1.06094e-16)
(0.279535 -0.190981 1.04294e-16)
(0.219618 -0.165744 1.03516e-16)
(0.14996 -0.123952 9.94188e-17)
(0.0945412 -0.070943 9.33609e-17)
(-0.00514541 0.0788795 -4.69024e-17)
(-0.0157582 0.188098 4.51095e-17)
(-0.01692 0.451655 1.09795e-16)
(0.10632 0.588207 1.30834e-16)
(0.232395 0.781071 1.35592e-16)
(0.466323 0.828004 1.41218e-16)
(0.645737 0.836954 1.44144e-16)
(0.777739 0.759437 1.42077e-16)
(0.806207 0.708077 1.42383e-16)
(0.91594 0.695389 1.43456e-16)
(1.00473 0.662828 1.4166e-16)
(1.08717 0.629538 1.39716e-16)
(1.12909 0.584864 1.40319e-16)
(1.16521 0.537024 1.4192e-16)
(1.19035 0.505281 1.45242e-16)
(1.19958 0.470172 1.47432e-16)
(1.21197 0.442667 1.4952e-16)
(1.21175 0.413832 1.52866e-16)
(1.22141 0.394163 1.5496e-16)
(1.22117 0.370797 1.56703e-16)
(1.21258 0.353351 1.58649e-16)
(1.21114 0.336754 1.60585e-16)
(1.20461 0.318988 1.63694e-16)
(1.20607 0.305895 1.66332e-16)
(1.1932 0.28976 1.66185e-16)
(1.19038 0.278164 1.68667e-16)
(1.18304 0.264578 1.70935e-16)
(1.18168 0.255152 1.73135e-16)
(1.17342 0.244286 1.72777e-16)
(1.17104 0.233534 1.74e-16)
(1.1627 0.223509 1.74917e-16)
(1.16365 0.214994 1.7568e-16)
(1.15872 0.204903 1.74798e-16)
(1.15874 0.196403 1.74435e-16)
(1.14796 0.18724 1.73893e-16)
(1.14551 0.180985 1.73601e-16)
(1.13521 0.170416 1.72705e-16)
(1.13608 0.163822 1.72823e-16)
(1.13143 0.158165 1.72789e-16)
(1.12801 0.147239 1.73027e-16)
(1.12874 0.137936 1.72013e-16)
(1.12706 0.133793 1.70567e-16)
(1.11598 0.127181 1.69458e-16)
(1.11332 0.121486 1.68623e-16)
(1.10005 0.115475 1.68747e-16)
(1.09833 0.111429 1.67516e-16)
(1.08842 0.106024 1.67756e-16)
(1.08913 0.102094 1.67067e-16)
(1.07611 0.095949 1.66916e-16)
(1.07863 0.0935506 1.64831e-16)
(1.07268 0.0826169 1.64564e-16)
(1.08045 0.0804895 1.63252e-16)
(1.07652 0.0704897 1.63373e-16)
(1.07715 0.0646628 1.61581e-16)
(1.07285 0.0619135 1.61548e-16)
(1.07252 0.0567 1.5925e-16)
(1.05947 0.0531896 1.58888e-16)
(1.06653 0.0468219 1.55194e-16)
(1.05354 0.0408125 1.55591e-16)
(1.06098 0.0395133 1.52157e-16)
(1.0516 0.0322674 1.52635e-16)
(1.0601 0.0286282 1.48944e-16)
(1.04825 0.0207187 1.50316e-16)
(1.06067 0.0211539 1.46384e-16)
(1.04461 0.0114804 1.47567e-16)
(1.05878 0.0110166 1.43401e-16)
(1.04401 0.00119652 1.45328e-16)
(1.06125 -0.00133729 1.41381e-16)
(1.0258 -0.00367926 1.43674e-16)
(1.07291 -0.0130842 1.39083e-16)
(1.01801 -0.0159458 1.41599e-16)
(1.0814 -0.0216769 1.37732e-16)
(0.973559 -0.028148 1.40048e-16)
(0.987151 -0.0256713 1.37196e-16)
(0.452039 0.0040066 1.31615e-16)
(-0.118867 0.0101256 1.04014e-16)
(-0.224843 0.00844933 7.35122e-17)
(-0.273466 0.0134362 6.8113e-17)
(-0.255124 0.0146828 6.11755e-17)
(-0.274516 0.0177892 6.00815e-17)
(-0.25112 0.0169223 5.83479e-17)
(-0.255972 0.0182705 5.73945e-17)
(-0.222441 0.0178087 5.49592e-17)
(-0.227155 0.0203369 5.30728e-17)
(-0.209325 0.019428 5.2091e-17)
(-0.220928 0.0219438 5.32342e-17)
(-0.209234 0.0224362 4.94088e-17)
(-0.220226 0.025297 5.21783e-17)
(-0.21521 0.0239168 4.6303e-17)
(-0.222385 0.024282 4.99722e-17)
(-0.219359 0.0257135 4.61932e-17)
(-0.219347 0.0278409 4.87122e-17)
(-0.214759 0.0271196 4.61718e-17)
(-0.213405 0.0260565 5.14864e-17)
(-0.210603 0.0264119 5.17454e-17)
(-0.209172 0.0277121 5.30731e-17)
(-0.203576 0.0277561 5.01208e-17)
(-0.202092 0.0276793 5.36947e-17)
(-0.195494 0.0271079 4.93528e-17)
(-0.193804 0.0274588 5.31651e-17)
(-0.190195 0.0277463 4.76779e-17)
(-0.197049 0.0295059 4.9215e-17)
(-0.203043 0.0310656 4.98264e-17)
(-0.214478 0.0333189 5.16761e-17)
(-0.220772 0.0344962 5.14944e-17)
(-0.227564 0.0357564 5.61051e-17)
(-0.230144 0.0364419 5.62629e-17)
(-0.233373 0.03725 5.71548e-17)
(-0.232762 0.0374817 5.54113e-17)
(-0.233803 0.038026 5.62136e-17)
(-0.232201 0.0382066 5.33562e-17)
(-0.233215 0.0388646 5.68447e-17)
(-0.233104 0.0392701 5.417e-17)
(-0.235882 0.0400272 5.53553e-17)
(-0.235629 0.0403313 5.50176e-17)
(-0.237153 0.0409809 5.59024e-17)
(-0.236308 0.0411699 5.57974e-17)
(-0.237674 0.0417132 5.62704e-17)
(-0.23739 0.0419135 5.60828e-17)
(-0.239493 0.0425374 5.56512e-17)
(-0.240246 0.0430364 5.67767e-17)
(-0.242816 0.0440451 5.65644e-17)
(-0.243849 0.0448317 5.78656e-17)
(-0.246294 0.045689 5.76981e-17)
(-0.247453 0.0460725 5.83033e-17)
(-0.249932 0.0466294 5.95037e-17)
(-0.250659 0.0469247 5.87643e-17)
(-0.251513 0.0472938 5.9642e-17)
(-0.250376 0.0473406 5.98533e-17)
(-0.249174 0.0473127 6.05392e-17)
(-0.246239 0.0468631 6.051e-17)
(-0.243459 0.0463044 6.12074e-17)
(-0.239351 0.0453936 6.14888e-17)
(-0.235439 0.0446596 6.15796e-17)
(-0.230109 0.043784 6.23185e-17)
(-0.224372 0.0429484 6.15191e-17)
(-0.217105 0.0417829 6.22533e-17)
(-0.209366 0.0403974 6.21147e-17)
(-0.20114 0.0386746 6.27864e-17)
(-0.192148 0.036784 6.21451e-17)
(-0.183168 0.0347528 6.33623e-17)
(-0.172853 0.0327708 6.28209e-17)
(-0.162462 0.0305932 6.31669e-17)
(-0.149811 0.0283947 6.32678e-17)
(-0.138565 0.0254473 6.30624e-17)
(-0.123314 0.0232232 6.34036e-17)
(-0.111924 0.0192614 6.35995e-17)
(-0.0922257 0.0164303 6.36913e-17)
(-0.080318 0.0114171 6.38707e-17)
(-0.0543089 0.00707502 6.41408e-17)
(-0.0421673 0.00100401 6.39101e-17)
(-0.0031932 -0.00858994 6.46552e-17)
(0.00961407 -0.0169684 6.41381e-17)
(0.0550059 -0.0522683 6.42079e-17)
(0.0956946 -0.108502 6.4194e-17)
(0.198679 0.00426851 6.35104e-17)
(0.393951 0.0275927 5.83276e-17)
(0.462109 0.0337 6.06062e-17)
(0.68121 0.0313335 5.69263e-17)
(0.842566 0.0951843 5.80694e-17)
(0.850874 0.051463 6.46333e-17)
(0.911511 0.0112058 6.68482e-17)
(0.908911 0.0780117 6.94014e-17)
(0.915072 0.0532816 7.38109e-17)
(0.986363 0.0519047 7.56702e-17)
(1.02831 0.170807 7.69343e-17)
(0.934948 0.184448 8.19251e-17)
(0.851699 0.0950069 8.76953e-17)
(0.88493 0.0318527 9.77714e-17)
(0.939957 0.0816905 1.06068e-16)
(0.905931 0.105086 9.92974e-17)
(0.888267 0.0824993 9.8804e-17)
(0.895995 0.079588 7.91697e-17)
(0.897517 0.0768243 1.19235e-16)
(0.901998 0.0738812 7.19686e-17)
(0.900906 0.0747459 2.64505e-17)
(0.888486 0.0704368 1.00622e-18)
(0.877525 0.0547655 -6.02572e-17)
(0.86176 0.0522324 -8.9953e-18)
(0.852456 0.0248948 -8.39073e-17)
(0.831047 0.0519748 -3.03126e-16)
(0.822325 -0.0172767 1.87378e-16)
(0.802657 0.0311385 -3.56572e-16)
(0.811913 -0.0189788 4.75634e-16)
(0.837308 0.0209505 8.96335e-17)
(0.844007 0.0128399 1.08398e-16)
(0.869983 0.0494768 7.07875e-17)
(0.86998 0.0492907 7.08063e-17)
(0.843954 0.0127298 1.24438e-16)
(0.837326 0.0208913 6.89715e-17)
(0.811781 -0.0188627 1.05167e-15)
(0.802714 0.0310389 -3.49962e-16)
(0.822394 -0.0170891 9.99327e-17)
(0.830949 0.0517959 -3.47238e-16)
(0.852595 0.0251106 -9.31316e-17)
(0.86178 0.0521151 -1.6181e-17)
(0.877565 0.0548548 -7.12761e-17)
(0.888558 0.0705799 1.59416e-17)
(0.900943 0.0747545 1.13713e-17)
(0.902042 0.0740007 3.35043e-17)
(0.897498 0.0767337 1.21924e-16)
(0.896076 0.0793565 7.79743e-17)
(0.888779 0.0825237 9.11285e-17)
(0.906064 0.105365 9.90452e-17)
(0.939134 0.0842245 1.05863e-16)
(0.88799 0.0384556 9.74528e-17)
(0.858101 0.0949631 8.65917e-17)
(0.938574 0.17709 8.25928e-17)
(1.02825 0.157435 7.66866e-17)
(0.999094 0.0613419 7.61034e-17)
(0.947809 0.063697 7.43802e-17)
(0.924044 0.0755861 7.11111e-17)
(0.889196 0.0263315 7.02705e-17)
(0.857469 0.0480057 6.94445e-17)
(0.843623 0.0600407 6.79814e-17)
(0.862494 0.0122371 6.60957e-17)
(0.841005 0.00851566 6.36935e-17)
(0.840996 -0.000556899 6.31815e-17)
(0.835928 -0.0319631 6.13977e-17)
(0.806938 0.00406721 6.19396e-17)
(0.797153 -0.0344196 6.10026e-17)
(0.767238 -0.0197229 6.16231e-17)
(0.761108 -0.031499 6.0822e-17)
(0.737124 -0.0252575 6.12417e-17)
(0.732594 -0.0286492 6.09067e-17)
(0.710326 -0.0256603 6.08599e-17)
(0.708923 -0.0258864 6.08694e-17)
(0.688245 -0.0229587 6.0686e-17)
(0.688852 -0.0224991 6.06827e-17)
(0.669586 -0.0204362 6.04926e-17)
(0.67004 -0.0195218 6.04532e-17)
(0.652365 -0.0180114 6.03823e-17)
(0.652831 -0.016983 6.02415e-17)
(0.635361 -0.0148261 6.02033e-17)
(0.636309 -0.0136144 6.00389e-17)
(0.620011 -0.0114279 6.00658e-17)
(0.62037 -0.0109085 5.97017e-17)
(0.605514 -0.00766841 5.99382e-17)
(0.605165 -0.00732663 5.94567e-17)
(0.591705 -0.00520847 5.96065e-17)
(0.588738 -0.00347364 5.93222e-17)
(0.578117 0.000636689 5.92896e-17)
(0.578798 0.00207015 5.90737e-17)
(0.569351 0.00307689 5.89851e-17)
(0.566916 0.00351392 5.87684e-17)
(0.555393 0.0050786 5.86344e-17)
(0.552126 0.00767425 5.84353e-17)
(0.545208 0.00988593 5.82177e-17)
(0.541877 0.0110119 5.80222e-17)
(0.533307 0.0139519 5.78003e-17)
(0.532297 0.0163393 5.75021e-17)
(0.526188 0.0184967 5.73295e-17)
(0.524411 0.020294 5.69343e-17)
(0.519053 0.0225589 5.67641e-17)
(0.518661 0.024576 5.62168e-17)
(0.5136 0.0260123 5.60811e-17)
(0.512824 0.0283128 5.54671e-17)
(0.508792 0.030116 5.50535e-17)
(0.508203 0.0318494 5.43212e-17)
(0.505021 0.0341329 5.39797e-17)
(0.504789 0.0357886 5.31592e-17)
(0.502475 0.0373427 5.27891e-17)
(0.502189 0.0394505 5.21691e-17)
(0.501028 0.041128 5.11241e-17)
(0.500996 0.0430345 5.0336e-17)
(0.500656 0.0449103 4.99966e-17)
(0.501571 0.0464651 4.87494e-17)
(0.500867 0.0480689 4.82097e-17)
(0.501781 0.0498782 4.7183e-17)
(0.50174 0.0518099 4.64891e-17)
(0.504023 0.0539324 4.49392e-17)
(0.505503 0.0555272 4.45477e-17)
(0.50759 0.0573604 4.35593e-17)
(0.509813 0.0590415 4.30211e-17)
(0.511997 0.0606635 4.26826e-17)
(0.514133 0.0624349 4.22118e-17)
(0.51695 0.0645005 4.21018e-17)
(0.521178 0.066834 4.21886e-17)
(0.52631 0.0687775 4.07933e-17)
(0.531241 0.0706525 4.33936e-17)
(0.537107 0.0726053 4.35045e-17)
(0.542908 0.0745052 4.62043e-17)
(0.550262 0.0765107 4.67025e-17)
(0.557192 0.0781465 4.89034e-17)
(0.564996 0.0799837 5.12347e-17)
(0.573055 0.0817237 5.33471e-17)
(0.582391 0.08368 5.40631e-17)
(0.592272 0.0852446 5.87377e-17)
(0.602142 0.0867849 6.07571e-17)
(0.61267 0.0890239 5.9748e-17)
(0.632669 0.0933989 6.32003e-17)
(0.653203 0.0932991 6.50155e-17)
(0.659196 0.0896724 6.69142e-17)
(0.663514 0.0900611 7.03592e-17)
(0.678433 0.0934145 6.9537e-17)
(0.695594 0.0940297 7.28547e-17)
(0.713904 0.0944295 7.08537e-17)
(0.732166 0.0939112 7.60689e-17)
(0.751106 0.0932355 7.29766e-17)
(0.769737 0.0919824 7.85049e-17)
(0.792913 0.0914483 7.63573e-17)
(0.815933 0.088602 8.17248e-17)
(0.840608 0.085629 8.02034e-17)
(0.865251 0.0818558 8.42356e-17)
(0.887565 0.078537 8.36877e-17)
(0.905062 0.0716416 8.61609e-17)
(0.919219 0.0650851 8.58838e-17)
(0.929328 0.0565522 8.83185e-17)
(0.941165 0.0494458 8.67131e-17)
(0.942809 0.0386038 8.92456e-17)
(0.948378 0.030581 8.84844e-17)
(0.943643 0.0172672 9.06476e-17)
(0.936797 0.0105885 9.0638e-17)
(0.934682 0.000143413 9.2981e-17)
(0.917786 -0.00841078 9.32816e-17)
(0.917899 -0.0139852 9.58267e-17)
(0.909142 -0.0242377 9.63929e-17)
(0.899561 -0.0290005 9.86254e-17)
(0.890752 -0.0368976 9.89284e-17)
(0.883206 -0.0408833 1.00871e-16)
(0.877462 -0.0468039 1.00829e-16)
(0.87014 -0.0513462 1.02659e-16)
(0.867024 -0.0572059 1.02857e-16)
(0.857191 -0.0608662 1.04726e-16)
(0.853378 -0.0649273 1.04982e-16)
(0.847696 -0.0688129 1.07552e-16)
(0.843606 -0.0721899 1.07885e-16)
(0.840247 -0.0761451 1.10335e-16)
(0.83605 -0.0811779 1.11039e-16)
(0.830313 -0.0841708 1.13006e-16)
(0.826445 -0.0881588 1.13212e-16)
(0.822781 -0.0907877 1.14662e-16)
(0.819651 -0.0957017 1.14119e-16)
(0.815982 -0.0982276 1.14774e-16)
(0.812178 -0.103765 1.13382e-16)
(0.80756 -0.107212 1.14002e-16)
(0.801884 -0.112216 1.11866e-16)
(0.796981 -0.115241 1.12321e-16)
(0.791255 -0.120444 1.107e-16)
(0.78536 -0.123717 1.11587e-16)
(0.778849 -0.129032 1.10526e-16)
(0.771732 -0.132495 1.11178e-16)
(0.765068 -0.137797 1.11543e-16)
(0.757324 -0.141768 1.12557e-16)
(0.749017 -0.147025 1.13569e-16)
(0.738622 -0.150755 1.15631e-16)
(0.728428 -0.154603 1.1641e-16)
(0.719145 -0.15794 1.18332e-16)
(0.70959 -0.162977 1.20019e-16)
(0.69771 -0.167731 1.22071e-16)
(0.684586 -0.172488 1.23126e-16)
(0.670122 -0.177089 1.2498e-16)
(0.654259 -0.181602 1.26061e-16)
(0.635765 -0.184721 1.27654e-16)
(0.616689 -0.187912 1.27203e-16)
(0.597016 -0.190968 1.29525e-16)
(0.574921 -0.19514 1.27098e-16)
(0.548599 -0.197208 1.29806e-16)
(0.519804 -0.197557 1.27535e-16)
(0.488949 -0.195755 1.30135e-16)
(0.456542 -0.195054 1.27685e-16)
(0.41935 -0.192763 1.27896e-16)
(0.375451 -0.186982 1.26256e-16)
(0.330117 -0.177946 1.25391e-16)
(0.279363 -0.162328 1.23747e-16)
(0.226553 -0.132224 1.22165e-16)
(0.167637 -0.082456 1.16759e-16)
(0.115878 -0.0137992 1.11268e-16)
(0.0562 0.0890027 1.71863e-17)
(0.0553225 0.231719 1.76178e-16)
(0.0503419 0.37738 2.23052e-16)
(0.150063 0.482897 2.52204e-16)
(0.283533 0.638384 2.62023e-16)
(0.477987 0.707106 2.69002e-16)
(0.644943 0.742 2.69159e-16)
(0.779554 0.712004 2.69034e-16)
(0.832383 0.682252 2.65698e-16)
(0.938256 0.688587 2.6304e-16)
(1.02938 0.661555 2.59876e-16)
(1.11518 0.637227 2.58e-16)
(1.17005 0.593447 2.56334e-16)
(1.21599 0.563414 2.52754e-16)
(1.25592 0.53175 2.48832e-16)
(1.274 0.501609 2.45091e-16)
(1.2945 0.473043 2.39809e-16)
(1.30144 0.447257 2.37916e-16)
(1.31638 0.4222 2.34277e-16)
(1.32131 0.406146 2.29742e-16)
(1.31837 0.385849 2.25615e-16)
(1.31932 0.368074 2.22383e-16)
(1.3136 0.349857 2.20727e-16)
(1.31775 0.33764 2.1935e-16)
(1.30727 0.322174 2.15471e-16)
(1.30531 0.309038 2.13674e-16)
(1.2973 0.294912 2.13041e-16)
(1.29651 0.28436 2.11958e-16)
(1.28934 0.271765 2.09682e-16)
(1.28755 0.260872 2.0847e-16)
(1.27918 0.248859 2.08362e-16)
(1.27991 0.238869 2.0719e-16)
(1.27523 0.22912 2.05145e-16)
(1.27596 0.219775 2.0304e-16)
(1.26635 0.209473 2.01871e-16)
(1.26423 0.201105 1.99926e-16)
(1.2543 0.192878 1.9848e-16)
(1.25506 0.185079 1.97373e-16)
(1.25078 0.174894 1.96913e-16)
(1.24731 0.16558 1.96182e-16)
(1.24807 0.157492 1.95331e-16)
(1.24842 0.149677 1.9335e-16)
(1.238 0.143099 1.92062e-16)
(1.23616 0.137731 1.90489e-16)
(1.22345 0.131082 1.89306e-16)
(1.22229 0.125694 1.88434e-16)
(1.2122 0.119819 1.87629e-16)
(1.21356 0.114654 1.86555e-16)
(1.20057 0.110356 1.86076e-16)
(1.203 0.104026 1.84622e-16)
(1.19629 0.0984785 1.84128e-16)
(1.2042 0.0874382 1.82501e-16)
(1.19989 0.0830662 1.82502e-16)
(1.20177 0.0766352 1.79823e-16)
(1.19747 0.0692017 1.8078e-16)
(1.19835 0.0654453 1.78224e-16)
(1.18542 0.0584362 1.78223e-16)
(1.19246 0.0572032 1.74215e-16)
(1.17982 0.0513642 1.74065e-16)
(1.18728 0.0447429 1.69884e-16)
(1.1778 0.0403075 1.70866e-16)
(1.1862 0.0359502 1.67022e-16)
(1.17505 0.0300129 1.68035e-16)
(1.1867 0.0214078 1.63886e-16)
(1.17269 0.0182873 1.64942e-16)
(1.18424 0.0119752 1.60659e-16)
(1.17323 0.00378992 1.62119e-16)
(1.18555 0.00433991 1.5819e-16)
(1.1636 -0.00150568 1.60293e-16)
(1.2006 -0.0115651 1.57302e-16)
(1.18541 -0.0176352 1.60429e-16)
(1.2145 -0.0239687 1.58122e-16)
(1.18396 -0.02999 1.60186e-16)
(1.06908 -0.0168529 1.53928e-16)
(0.815521 0.0252422 1.55377e-16)
(0.211443 0.0404012 1.29878e-16)
(-0.0262266 0.0182494 1.00896e-16)
(-0.160017 0.0153178 8.58752e-17)
(-0.183108 0.014026 7.70011e-17)
(-0.224617 0.0170668 6.95337e-17)
(-0.228791 0.0175604 6.70917e-17)
(-0.26302 0.0208338 6.51829e-17)
(-0.267828 0.0212389 6.77463e-17)
(-0.27415 0.0235064 6.59754e-17)
(-0.258577 0.0238708 6.70933e-17)
(-0.268156 0.0262985 6.36063e-17)
(-0.25436 0.0270259 6.72197e-17)
(-0.263134 0.0301655 6.07163e-17)
(-0.252686 0.0277653 6.74717e-17)
(-0.257773 0.0279327 6.21633e-17)
(-0.247784 0.0283449 6.45114e-17)
(-0.246728 0.0306062 6.08196e-17)
(-0.237213 0.0291076 6.31105e-17)
(-0.235431 0.028127 5.9365e-17)
(-0.228608 0.0280721 5.89325e-17)
(-0.226457 0.0294722 6.30464e-17)
(-0.220092 0.0296979 6.08839e-17)
(-0.220533 0.0299803 6.01634e-17)
(-0.215254 0.0297573 5.75143e-17)
(-0.216757 0.0308268 5.7864e-17)
(-0.213642 0.03174 5.92655e-17)
(-0.219494 0.0340415 6.02021e-17)
(-0.222995 0.0355406 5.94221e-17)
(-0.231866 0.0374497 6.19119e-17)
(-0.235682 0.0379125 6.16022e-17)
(-0.24061 0.0387204 6.05653e-17)
(-0.241957 0.0390201 6.26353e-17)
(-0.244953 0.0396259 6.19418e-17)
(-0.245047 0.0398182 6.27768e-17)
(-0.247019 0.0403585 6.16928e-17)
(-0.246341 0.0405667 6.20611e-17)
(-0.24779 0.0412815 6.24442e-17)
(-0.247638 0.0418487 6.10239e-17)
(-0.249898 0.0426795 6.11177e-17)
(-0.249343 0.0428124 6.01427e-17)
(-0.250118 0.0432211 6.03831e-17)
(-0.249351 0.043474 6.03583e-17)
(-0.250483 0.044117 6.13488e-17)
(-0.250613 0.0445547 6.0668e-17)
(-0.252581 0.0453457 6.16417e-17)
(-0.2537 0.0460871 6.05995e-17)
(-0.256072 0.0471659 6.18865e-17)
(-0.257492 0.0481067 6.13352e-17)
(-0.25974 0.0490309 6.23887e-17)
(-0.261107 0.0494816 6.23044e-17)
(-0.263101 0.0499168 6.23545e-17)
(-0.263669 0.0499292 6.25826e-17)
(-0.264026 0.049859 6.33687e-17)
(-0.262751 0.049395 6.36685e-17)
(-0.261195 0.0487798 6.37827e-17)
(-0.258311 0.047794 6.41632e-17)
(-0.255212 0.0466709 6.39725e-17)
(-0.251209 0.0452678 6.43116e-17)
(-0.247042 0.0439712 6.41574e-17)
(-0.241832 0.0425075 6.43807e-17)
(-0.235938 0.0410249 6.43701e-17)
(-0.229011 0.0392259 6.46872e-17)
(-0.221431 0.0372115 6.42988e-17)
(-0.213636 0.0348481 6.47749e-17)
(-0.204935 0.0323344 6.45097e-17)
(-0.196372 0.0294955 6.4815e-17)
(-0.186598 0.0265507 6.45822e-17)
(-0.176595 0.0233789 6.47407e-17)
(-0.165222 0.0196967 6.48464e-17)
(-0.15337 0.0158895 6.47579e-17)
(-0.140522 0.0113095 6.47866e-17)
(-0.127632 0.00660154 6.47099e-17)
(-0.112517 0.000709617 6.49891e-17)
(-0.0977272 -0.00534216 6.48564e-17)
(-0.0806195 -0.0138009 6.4935e-17)
(-0.0631824 -0.0223679 6.47302e-17)
(-0.0422799 -0.0325443 6.47843e-17)
(-0.0228697 -0.0447642 6.47103e-17)
(0.00338884 -0.0630808 6.45635e-17)
(-0.0014128 -0.07503 6.4125e-17)
(0.0260425 -0.0780063 6.37764e-17)
(0.0962653 -0.0203774 6.23999e-17)
(0.206721 -0.0150917 6.27458e-17)
(0.301554 0.000203888 6.08486e-17)
(0.555723 0.064241 5.714e-17)
(0.651238 0.0481836 6.19973e-17)
(0.856598 0.00660802 6.25048e-17)
(0.894518 0.0841628 6.67544e-17)
(0.896086 0.0525689 7.27137e-17)
(0.97857 0.0538661 7.53137e-17)
(1.02666 0.17495 7.70804e-17)
(0.931105 0.18813 8.185e-17)
(0.847379 0.0954058 8.83006e-17)
(0.882963 0.0287429 1.01119e-16)
(0.94054 0.0807552 1.0509e-16)
(0.905911 0.105171 9.94595e-17)
(0.887943 0.0825295 9.91493e-17)
(0.895927 0.0797317 7.11946e-17)
(0.897595 0.0773109 1.1746e-16)
(0.90198 0.073815 -2.91113e-17)
(0.900872 0.0747545 2.74424e-17)
(0.888428 0.0703698 -3.80877e-17)
(0.877503 0.0547189 -1.28094e-16)
(0.861691 0.0520883 -3.69036e-18)
(0.852499 0.0247849 -1.90807e-16)
(0.830856 0.0517624 -2.69269e-16)
(0.822255 -0.0173213 2.4694e-16)
(0.802653 0.0310975 2.83228e-16)
(0.811925 -0.0188875 -1.86858e-15)
(0.83724 0.0210832 -3.92774e-17)
(0.84411 0.0129166 1.7704e-16)
(0.869917 0.0494105 6.9656e-17)
(0.869933 0.0494925 6.98794e-17)
(0.844073 0.0129668 1.3105e-16)
(0.837227 0.0210062 -5.00112e-17)
(0.81179 -0.0187946 2.07537e-15)
(0.802703 0.0309698 2.80224e-16)
(0.822465 -0.0169842 2.27275e-16)
(0.830815 0.0515293 -2.49714e-16)
(0.852661 0.0251649 -1.67556e-16)
(0.86179 0.0520566 -4.37687e-17)
(0.877595 0.0548796 -1.13154e-16)
(0.888608 0.0706422 -3.33256e-17)
(0.90094 0.0746754 2.23398e-17)
(0.902056 0.0740528 -7.1858e-18)
(0.897557 0.0770411 9.89301e-17)
(0.896035 0.0792798 7.33341e-17)
(0.889147 0.0825104 9.86178e-17)
(0.906162 0.105538 9.87271e-17)
(0.938678 0.085866 1.05763e-16)
(0.88975 0.0425638 9.50413e-17)
(0.861713 0.0942256 8.88818e-17)
(0.941343 0.172752 8.25771e-17)
(1.02614 0.152761 7.69242e-17)
(1.0043 0.0650119 7.60894e-17)
(0.965052 0.0673794 7.50368e-17)
(0.946259 0.0698967 7.16906e-17)
(0.909836 0.0242601 7.13003e-17)
(0.891484 0.0488607 7.04474e-17)
(0.897405 0.0481848 6.85912e-17)
(0.892746 0.0232329 6.80131e-17)
(0.862124 0.0174044 6.75495e-17)
(0.860241 0.0063471 6.6214e-17)
(0.845862 -0.00199322 6.62794e-17)
(0.847618 -0.0109544 6.50373e-17)
(0.818928 -0.0163081 6.59672e-17)
(0.806238 -0.0207512 6.49269e-17)
(0.795946 -0.021791 6.5392e-17)
(0.776138 -0.0230167 6.48902e-17)
(0.771896 -0.0229191 6.50434e-17)
(0.751318 -0.0224495 6.46885e-17)
(0.749382 -0.0221976 6.47613e-17)
(0.730728 -0.0199527 6.44939e-17)
(0.730012 -0.0202457 6.45026e-17)
(0.712884 -0.0177047 6.42843e-17)
(0.711429 -0.0179047 6.42371e-17)
(0.696626 -0.0153847 6.40838e-17)
(0.694313 -0.0153331 6.39814e-17)
(0.680691 -0.0124357 6.38392e-17)
(0.678025 -0.012316 6.36805e-17)
(0.665685 -0.00922528 6.35739e-17)
(0.662831 -0.00942461 6.33425e-17)
(0.651066 -0.00578999 6.33245e-17)
(0.648595 -0.00585183 6.29945e-17)
(0.637493 -0.00295702 6.29515e-17)
(0.633046 -0.00160211 6.26847e-17)
(0.624277 0.00209149 6.25382e-17)
(0.623109 0.00315468 6.23159e-17)
(0.615125 0.00466815 6.21329e-17)
(0.611766 0.00550224 6.1887e-17)
(0.60186 0.00720068 6.16636e-17)
(0.597957 0.00975366 6.13787e-17)
(0.59177 0.0116552 6.10927e-17)
(0.588297 0.0134795 6.08506e-17)
(0.580632 0.0159309 6.04704e-17)
(0.579074 0.0189481 6.01601e-17)
(0.573952 0.0206906 5.9774e-17)
(0.571363 0.0229558 5.93689e-17)
(0.567296 0.0253267 5.90231e-17)
(0.566047 0.0270146 5.84726e-17)
(0.562204 0.029159 5.79861e-17)
(0.560891 0.0312694 5.74468e-17)
(0.557713 0.033501 5.69354e-17)
(0.556983 0.0351237 5.62235e-17)
(0.554368 0.0377756 5.56133e-17)
(0.554117 0.0395136 5.49254e-17)
(0.55236 0.0412173 5.44799e-17)
(0.552278 0.0435021 5.36031e-17)
(0.551555 0.0453864 5.28731e-17)
(0.551742 0.047453 5.21316e-17)
(0.551914 0.0495147 5.11373e-17)
(0.553029 0.0512819 5.03719e-17)
(0.552971 0.0531255 4.96437e-17)
(0.554267 0.0550761 4.8829e-17)
(0.55482 0.0572114 4.82622e-17)
(0.557546 0.0594722 4.7068e-17)
(0.559539 0.0613188 4.67992e-17)
(0.562235 0.0633565 4.61325e-17)
(0.565079 0.065257 4.65743e-17)
(0.567954 0.0671409 4.60765e-17)
(0.570892 0.0691513 4.59243e-17)
(0.574492 0.0714456 4.63044e-17)
(0.579509 0.0739678 4.64628e-17)
(0.585371 0.0761301 4.85543e-17)
(0.591224 0.0782466 4.92054e-17)
(0.59792 0.080417 5.02423e-17)
(0.604702 0.0825298 5.15553e-17)
(0.612951 0.0847702 5.38853e-17)
(0.620899 0.0866215 5.52133e-17)
(0.629758 0.0886886 5.91149e-17)
(0.638889 0.0906295 5.96548e-17)
(0.64933 0.0927438 6.20969e-17)
(0.660304 0.0944595 6.46617e-17)
(0.671378 0.0961605 6.69741e-17)
(0.683141 0.098386 7.0588e-17)
(0.703559 0.102761 7.27055e-17)
(0.724307 0.102761 7.41916e-17)
(0.731972 0.0992369 7.63955e-17)
(0.738261 0.0997961 7.68874e-17)
(0.754158 0.102949 7.86227e-17)
(0.772047 0.103484 7.83521e-17)
(0.791184 0.103687 7.92632e-17)
(0.810045 0.102961 8.24406e-17)
(0.829558 0.102024 8.19207e-17)
(0.848513 0.100363 8.54101e-17)
(0.87153 0.0994715 8.58438e-17)
(0.893879 0.0959808 8.81356e-17)
(0.917708 0.0924844 8.95695e-17)
(0.940934 0.0879846 9.21093e-17)
(0.96186 0.0839688 9.1922e-17)
(0.977712 0.0763982 9.50699e-17)
(0.990554 0.0696384 9.36925e-17)
(0.99928 0.059706 9.62253e-17)
(1.00963 0.0526675 9.55134e-17)
(1.01007 0.0397857 9.78078e-17)
(1.01429 0.0313426 9.76198e-17)
(1.00854 0.0173987 9.9934e-17)
(1.00155 0.0103071 1.00358e-16)
(0.997957 -0.00132881 1.02912e-16)
(0.981498 -0.00976008 1.03539e-16)
(0.980265 -0.0158796 1.06192e-16)
(0.970839 -0.0264392 1.07017e-16)
(0.961023 -0.0319221 1.09455e-16)
(0.951432 -0.0393537 1.09521e-16)
(0.943508 -0.0443863 1.11457e-16)
(0.936806 -0.0497658 1.1173e-16)
(0.928938 -0.0547608 1.13462e-16)
(0.924784 -0.0608818 1.13934e-16)
(0.91453 -0.0643397 1.15954e-16)
(0.909595 -0.0688934 1.16615e-16)
(0.903137 -0.0721464 1.19046e-16)
(0.897988 -0.0764574 1.20249e-16)
(0.893123 -0.0805526 1.22408e-16)
(0.88812 -0.0845438 1.23097e-16)
(0.881202 -0.0892117 1.2568e-16)
(0.876325 -0.0920166 1.23545e-16)
(0.870859 -0.0969507 1.26361e-16)
(0.866654 -0.099764 1.2367e-16)
(0.861151 -0.105326 1.25318e-16)
(0.855887 -0.108435 1.22661e-16)
(0.849278 -0.114349 1.2346e-16)
(0.842276 -0.117324 1.20749e-16)