/*--------------------------------*- C++ -*----------------------------------*\
| =========                 |                                                 |
| \\      /  F ield         | OpenFOAM: The Open Source CFD Toolbox           |
|  \\    /   O peration     | Version:  v2006                                 |
|   \\  /    A nd           | Website:  www.openfoam.com                      |
|    \\/     M anipulation  |                                                 |
\*---------------------------------------------------------------------------*/
FoamFile
{
    version     2.0;
    format      ascii;
    class       volScalarField;
    location    "150";
    object      alphat;
}
// * * * * * * * * * * * * * * * * * * * * * * * * * * * * * * * * * * * * * //

dimensions      [1 -1 -1 0 0 0 0];


internalField   nonuniform List<scalar> 
93840
(
2.9138e-08
2.87186e-08
2.89346e-08
2.78123e-08
2.90903e-08
2.84248e-08
3.17899e-08
3.19541e-08
2.87234e-08
2.75292e-08
3.05194e-08
2.87321e-08
2.93955e-08
2.78928e-08
2.70801e-08
2.23336e-08
2.10501e-08
3.66673e-08
1.42498e-07
1.85758e-06
8.7542e-06
2.41237e-05
3.83545e-05
3.86263e-05
3.44945e-05
3.07264e-05
2.48205e-05
2.20883e-05
1.88793e-05
1.64554e-05
1.44596e-05
1.36268e-05
1.31674e-05
1.2945e-05
1.2942e-05
1.28942e-05
1.27267e-05
1.27729e-05
1.25722e-05
1.26547e-05
1.24487e-05
1.25207e-05
1.23464e-05
1.24038e-05
1.22197e-05
1.22647e-05
1.21024e-05
1.21391e-05
1.19912e-05
1.20122e-05
1.18903e-05
1.18954e-05
1.17484e-05
1.17616e-05
1.16762e-05
1.17373e-05
1.16254e-05
1.16248e-05
1.14929e-05
1.15037e-05
1.14254e-05
1.14172e-05
1.13156e-05
1.13594e-05
1.12957e-05
1.13141e-05
1.12592e-05
1.13036e-05
1.12552e-05
1.12849e-05
1.12602e-05
1.12874e-05
1.12746e-05
1.13171e-05
1.13072e-05
1.1352e-05
1.13598e-05
1.14014e-05
1.1427e-05
1.1475e-05
1.14885e-05
1.15359e-05
1.1564e-05
1.16335e-05
1.16826e-05
1.17461e-05
1.17985e-05
1.1862e-05
1.1911e-05
1.19791e-05
1.20593e-05
1.21552e-05
1.22383e-05
1.23364e-05
1.24276e-05
1.25388e-05
1.26402e-05
1.27522e-05
1.28664e-05
1.29978e-05
1.31252e-05
1.32515e-05
1.33819e-05
1.36466e-05
1.38946e-05
1.39364e-05
1.39695e-05
1.41548e-05
1.43539e-05
1.45557e-05
1.47519e-05
1.49512e-05
1.51424e-05
1.53696e-05
1.55707e-05
1.5771e-05
1.59599e-05
1.61736e-05
1.63605e-05
1.65562e-05
1.6718e-05
1.68964e-05
1.70314e-05
1.71885e-05
1.72373e-05
1.73086e-05
1.74611e-05
1.7401e-05
1.75705e-05
1.75851e-05
1.7629e-05
1.766e-05
1.76312e-05
1.77372e-05
1.77105e-05
1.78099e-05
1.77718e-05
1.78837e-05
1.78682e-05
1.79432e-05
1.79568e-05
1.7991e-05
1.80123e-05
1.80541e-05
1.80991e-05
1.81349e-05
1.81812e-05
1.81989e-05
1.82237e-05
1.82319e-05
1.8253e-05
1.82494e-05
1.82456e-05
1.82279e-05
1.8185e-05
1.8119e-05
1.80556e-05
1.7977e-05
1.78699e-05
1.77677e-05
1.76627e-05
1.75333e-05
1.73313e-05
1.71384e-05
1.69118e-05
1.66363e-05
1.62574e-05
1.57801e-05
1.51882e-05
1.44501e-05
1.34843e-05
1.16045e-05
7.24233e-06
5.12799e-07
1.32972e-07
2.88633e-06
2.66904e-06
3.31037e-07
1.26609e-07
2.73931e-07
6.82893e-10
4.64131e-07
3.64909e-07
1.04867e-06
2.01039e-06
3.30653e-06
1.76335e-06
6.48903e-08
7.41775e-06
1.49352e-05
4.71183e-06
4.43481e-06
1.25972e-05
1.66624e-05
1.73335e-05
1.76332e-05
1.8242e-05
1.83985e-05
1.878e-05
1.86661e-05
1.86403e-05
1.85313e-05
1.8496e-05
1.83529e-05
1.8258e-05
1.81392e-05
1.80735e-05
1.79244e-05
1.78354e-05
1.76504e-05
1.75506e-05
1.73996e-05
1.72979e-05
1.71291e-05
1.70311e-05
1.68723e-05
1.67739e-05
1.66333e-05
1.65239e-05
1.63586e-05
1.62355e-05
1.60937e-05
1.59856e-05
1.58604e-05
1.57597e-05
1.56527e-05
1.55181e-05
1.54368e-05
1.53122e-05
1.52436e-05
1.50926e-05
1.50285e-05
1.48641e-05
1.48294e-05
1.46755e-05
1.46345e-05
1.45004e-05
1.4475e-05
1.43459e-05
1.42479e-05
1.4179e-05
1.40446e-05
1.39792e-05
1.37415e-05
1.36091e-05
1.29221e-05
1.15929e-05
1.14231e-05
1.17446e-05
1.23579e-05
1.28159e-05
1.30287e-05
1.31983e-05
1.3268e-05
1.33224e-05
1.32903e-05
1.3165e-05
1.28983e-05
1.26786e-05
1.25877e-05
1.25044e-05
1.24202e-05
1.23629e-05
1.23107e-05
1.22504e-05
1.21687e-05
1.2096e-05
1.20075e-05
1.18294e-05
1.16978e-05
1.17839e-05
1.18618e-05
1.17502e-05
1.15647e-05
1.15226e-05
1.15351e-05
1.14542e-05
1.13025e-05
1.11778e-05
1.10796e-05
1.09764e-05
1.08721e-05
1.07594e-05
1.0648e-05
1.05233e-05
1.04056e-05
1.02905e-05
1.01795e-05
1.00613e-05
9.93937e-06
9.81398e-06
9.68429e-06
9.55186e-06
9.4155e-06
9.28083e-06
9.13616e-06
8.99911e-06
8.85052e-06
8.71233e-06
8.56169e-06
8.43257e-06
8.28446e-06
8.15586e-06
7.99468e-06
7.85779e-06
7.69526e-06
7.57784e-06
7.42361e-06
7.31786e-06
7.16066e-06
7.05978e-06
6.88924e-06
6.8016e-06
6.62845e-06
6.55952e-06
6.36652e-06
6.30268e-06
6.05888e-06
5.96959e-06
5.65443e-06
5.47687e-06
4.89741e-06
4.26021e-06
3.53623e-06
2.49357e-06
7.19267e-07
4.9117e-07
9.45192e-09
2.77653e-07
4.00277e-09
6.61016e-07
8.08308e-08
1.73378e-06
5.55326e-07
3.26051e-06
8.99598e-07
5.09095e-06
7.50166e-06
1.20516e-05
1.67393e-05
2.07589e-05
2.34897e-05
2.77472e-05
3.13511e-05
3.66283e-05
3.90137e-05
2.72948e-05
1.07994e-05
2.53058e-06
2.02908e-07
4.23714e-08
2.91875e-08
2.79812e-08
2.90972e-08
2.82158e-08
2.92685e-08
2.87296e-08
3.03818e-08
2.75252e-08
2.856e-08
3.19808e-08
3.16907e-08
2.85048e-08
2.90651e-08
2.7809e-08
2.87682e-08
2.86058e-08
2.91262e-08
2.91489e-08
2.8618e-08
2.88068e-08
2.78355e-08
2.90275e-08
2.84699e-08
3.17622e-08
3.20247e-08
2.84806e-08
2.75151e-08
3.03086e-08
2.87031e-08
2.94251e-08
2.89665e-08
3.2687e-08
3.49144e-08
2.86228e-08
2.87235e-08
9.42634e-08
1.18059e-06
6.61903e-06
2.03795e-05
3.66073e-05
4.02018e-05
3.80171e-05
3.64207e-05
3.12243e-05
2.76516e-05
2.39715e-05
2.05572e-05
1.87447e-05
1.75789e-05
1.67735e-05
1.67601e-05
1.73437e-05
1.66317e-05
1.74151e-05
1.67084e-05
1.73379e-05
1.68738e-05
1.73053e-05
1.68711e-05
1.7382e-05
1.69183e-05
1.74339e-05
1.68888e-05
1.75593e-05
1.69299e-05
1.7563e-05
1.70707e-05
1.75463e-05
1.72153e-05
1.75519e-05
1.7256e-05
1.76051e-05
1.73285e-05
1.76925e-05
1.74758e-05
1.77293e-05
1.75301e-05
1.77801e-05
1.76307e-05
1.78181e-05
1.76896e-05
1.78826e-05
1.77909e-05
1.79356e-05
1.78786e-05
1.80184e-05
1.79678e-05
1.80864e-05
1.80608e-05
1.81554e-05
1.81497e-05
1.82432e-05
1.82439e-05
1.83279e-05
1.83345e-05
1.84096e-05
1.84377e-05
1.8507e-05
1.85326e-05
1.85908e-05
1.86236e-05
1.8693e-05
1.87369e-05
1.87902e-05
1.88452e-05
1.88938e-05
1.89246e-05
1.89514e-05
1.89832e-05
1.90179e-05
1.90424e-05
1.90576e-05
1.90725e-05
1.90727e-05
1.9068e-05
1.90521e-05
1.90295e-05
1.89809e-05
1.89394e-05
1.88489e-05
1.87478e-05
1.8697e-05
1.86812e-05
1.86071e-05
1.84886e-05
1.83818e-05
1.82863e-05
1.81662e-05
1.80534e-05
1.79252e-05
1.77796e-05
1.76362e-05
1.74872e-05
1.73402e-05
1.71758e-05
1.7018e-05
1.68827e-05
1.67285e-05
1.65924e-05
1.64618e-05
1.6323e-05
1.62255e-05
1.61788e-05
1.6051e-05
1.60244e-05
1.59453e-05
1.58403e-05
1.58312e-05
1.57343e-05
1.56938e-05
1.56171e-05
1.55151e-05
1.54792e-05
1.53755e-05
1.53389e-05
1.5208e-05
1.51493e-05
1.49926e-05
1.49088e-05
1.47835e-05
1.46936e-05
1.45374e-05
1.4417e-05
1.42374e-05
1.40809e-05
1.38921e-05
1.37306e-05
1.3519e-05
1.33055e-05
1.30486e-05
1.27739e-05
1.24393e-05
1.20655e-05
1.16399e-05
1.11656e-05
1.0656e-05
1.01165e-05
9.39587e-06
8.39552e-06
7.24562e-06
6.38082e-06
6.08311e-06
5.84362e-06
4.807e-06
3.10367e-06
1.83999e-06
1.69768e-06
1.81058e-06
9.71755e-07
1.04089e-08
5.66456e-10
6.55102e-08
1.78506e-08
1.56291e-07
1.48834e-09
7.65119e-08
9.79465e-08
1.35997e-07
4.77852e-08
1.35812e-08
5.14999e-09
2.37466e-11
2.56716e-08
2.37475e-08
8.26322e-12
2.99322e-07
5.30186e-07
8.08174e-08
8.64233e-07
1.86359e-06
4.01503e-06
3.68764e-06
2.29779e-06
3.02206e-06
5.15695e-06
6.97699e-06
7.87588e-06
8.73864e-06
9.6887e-06
1.05907e-05
1.12102e-05
1.1777e-05
1.22839e-05
1.27834e-05
1.30996e-05
1.33964e-05
1.36037e-05
1.38044e-05
1.39455e-05
1.40943e-05
1.41659e-05
1.4268e-05
1.43424e-05
1.44188e-05
1.44652e-05
1.45272e-05
1.45396e-05
1.4511e-05
1.45244e-05
1.45676e-05
1.45958e-05
1.46585e-05
1.47148e-05
1.47484e-05
1.48149e-05
1.48533e-05
1.4973e-05
1.49331e-05
1.49385e-05
1.48713e-05
1.48686e-05
1.49248e-05
1.48974e-05
1.49963e-05
1.52247e-05
1.49947e-05
1.50752e-05
1.51366e-05
1.55909e-05
1.54816e-05
1.56746e-05
1.56651e-05
1.54936e-05
1.67092e-05
1.8004e-05
1.85999e-05
1.85922e-05
1.82225e-05
1.81496e-05
1.79023e-05
1.77908e-05
1.78211e-05
1.79277e-05
1.81337e-05
1.84496e-05
1.88621e-05
1.91232e-05
1.92072e-05
1.92362e-05
1.94162e-05
1.96904e-05
1.99019e-05
1.994e-05
1.98691e-05
1.9805e-05
1.99312e-05
2.03281e-05
2.07084e-05
2.09031e-05
2.10149e-05
2.11904e-05
2.12823e-05
2.12062e-05
2.10504e-05
2.09481e-05
2.08815e-05
2.08072e-05
2.07321e-05
2.06629e-05
2.06057e-05
2.05524e-05
2.05029e-05
2.04789e-05
2.04384e-05
2.04123e-05
2.03572e-05
2.03198e-05
2.02462e-05
2.01945e-05
2.00867e-05
2.00311e-05
1.98947e-05
1.98314e-05
1.96665e-05
1.96192e-05
1.94268e-05
1.94123e-05
1.92005e-05
1.92176e-05
1.89623e-05
1.90068e-05
1.87274e-05
1.88352e-05
1.85354e-05
1.86958e-05
1.8348e-05
1.8556e-05
1.81584e-05
1.84099e-05
1.79748e-05
1.82643e-05
1.77679e-05
1.80277e-05
1.74505e-05
1.75909e-05
1.68957e-05
1.67148e-05
1.56581e-05
1.44474e-05
1.23614e-05
1.02619e-05
8.16911e-06
6.28498e-06
4.88056e-06
3.91308e-06
3.47649e-06
3.50896e-06
2.194e-06
3.09796e-06
2.9196e-06
3.75034e-06
2.6838e-06
2.59419e-06
3.12637e-06
3.63568e-06
7.30857e-06
1.38224e-05
1.90124e-05
2.40949e-05
2.83917e-05
2.9971e-05
3.38613e-05
3.85807e-05
3.03867e-05
1.33916e-05
3.42529e-06
3.48713e-07
4.49542e-08
3.29068e-08
2.73794e-08
2.85474e-08
2.84248e-08
2.91702e-08
2.85513e-08
3.03394e-08
2.74746e-08
2.88761e-08
3.19325e-08
3.16686e-08
2.84597e-08
2.91741e-08
2.77797e-08
2.89632e-08
2.86893e-08
2.91291e-08
2.91568e-08
2.8696e-08
2.89529e-08
2.78479e-08
2.90707e-08
2.83729e-08
3.17848e-08
3.19361e-08
2.86034e-08
2.746e-08
3.04908e-08
2.86929e-08
2.95786e-08
2.79331e-08
2.92004e-08
3.47507e-08
4.38159e-08
3.58475e-08
5.49891e-08
6.66517e-07
4.74616e-06
1.6268e-05
3.33343e-05
3.99046e-05
3.91945e-05
3.95776e-05
3.70422e-05
3.50682e-05
3.25323e-05
3.02724e-05
2.88883e-05
2.82641e-05
2.65517e-05
2.75843e-05
2.66258e-05
2.72696e-05
2.68046e-05
2.71562e-05
2.70064e-05
2.71479e-05
2.71694e-05
2.71646e-05
2.73385e-05
2.72633e-05
2.74577e-05
2.73741e-05
2.76062e-05
2.74878e-05
2.7745e-05
2.76267e-05
2.79071e-05
2.7788e-05
2.8006e-05
2.79058e-05
2.81662e-05
2.80847e-05
2.838e-05
2.82651e-05
2.84774e-05
2.83756e-05
2.8601e-05
2.84978e-05
2.86797e-05
2.86017e-05
2.87985e-05
2.87303e-05
2.88913e-05
2.88485e-05
2.8996e-05
2.89444e-05
2.90701e-05
2.90265e-05
2.91224e-05
2.90955e-05
2.91831e-05
2.91556e-05
2.92246e-05
2.91955e-05
2.92479e-05
2.92362e-05
2.9261e-05
2.92301e-05
2.92345e-05
2.92083e-05
2.92199e-05
2.91889e-05
2.91673e-05
2.91359e-05
2.908e-05
2.89888e-05
2.8884e-05
2.87849e-05
2.86791e-05
2.85458e-05
2.8391e-05
2.8226e-05
2.80244e-05
2.78008e-05
2.75591e-05
2.72875e-05
2.69604e-05
2.66507e-05
2.62571e-05
2.58606e-05
2.55588e-05
2.52792e-05
2.48997e-05
2.4442e-05
2.40053e-05
2.35868e-05
2.31227e-05
2.26731e-05
2.21973e-05
2.16994e-05
2.12208e-05
2.07202e-05
2.0251e-05
1.97484e-05
1.92891e-05
1.88625e-05
1.84292e-05
1.80331e-05
1.76809e-05
1.73067e-05
1.70519e-05
1.67932e-05
1.64819e-05
1.63083e-05
1.60074e-05
1.57715e-05
1.55689e-05
1.53142e-05
1.5085e-05
1.48152e-05
1.45263e-05
1.42916e-05
1.39838e-05
1.37203e-05
1.33633e-05
1.30629e-05
1.26678e-05
1.23455e-05
1.19607e-05
1.15993e-05
1.11405e-05
1.07119e-05
1.01909e-05
9.69097e-06
9.12449e-06
8.5836e-06
7.95818e-06
7.32807e-06
6.59998e-06
5.8349e-06
5.01866e-06
4.26877e-06
3.5155e-06
2.7423e-06
2.07853e-06
1.78996e-06
1.45519e-06
6.40454e-07
5.20848e-08
4.25989e-08
9.77378e-08
4.01025e-08
1.71237e-08
4.16137e-08
5.12132e-08
4.4397e-08
1.62456e-08
2.55002e-08
1.25453e-07
1.5126e-07
5.76537e-08
5.61592e-08
2.21737e-08
1.63137e-07
9.95149e-08
3.21417e-08
6.02667e-08
1.88954e-07
1.10385e-07
1.02628e-07
1.61836e-07
8.39648e-08
7.43738e-08
4.73517e-08
2.97185e-08
2.24843e-08
5.44711e-08
3.41293e-08
4.07188e-08
2.88828e-07
2.00689e-07
9.53909e-08
6.06048e-09
5.72708e-07
1.01278e-06
5.00715e-07
8.75808e-07
1.78278e-06
2.191e-06
2.37736e-06
2.91109e-06
3.6338e-06
4.29044e-06
4.82555e-06
5.42095e-06
6.05488e-06
6.81113e-06
7.5928e-06
8.40166e-06
9.12186e-06
9.75429e-06
1.03337e-05
1.08797e-05
1.13522e-05
1.17725e-05
1.21484e-05
1.24755e-05
1.27454e-05
1.30462e-05
1.33311e-05
1.36223e-05
1.393e-05
1.41925e-05
1.45481e-05
1.47786e-05
1.51858e-05
1.53448e-05
1.56349e-05
1.57392e-05
1.59258e-05
1.62164e-05
1.6316e-05
1.66373e-05
1.71623e-05
1.69445e-05
1.74327e-05
1.79914e-05
1.88523e-05
1.91414e-05
1.93156e-05
1.96664e-05
1.93461e-05
2.12791e-05
2.3451e-05
2.45166e-05
2.48101e-05
2.4559e-05
2.47115e-05
2.44556e-05
2.43122e-05
2.44423e-05
2.46857e-05
2.50019e-05
2.55022e-05
2.63342e-05
2.70365e-05
2.73916e-05
2.75884e-05
2.81095e-05
2.89291e-05
2.9665e-05
2.99914e-05
2.99997e-05
3.00145e-05
3.04105e-05
3.14149e-05
3.26461e-05
3.36047e-05
3.42157e-05
3.47652e-05
3.52253e-05
3.5389e-05
3.52814e-05
3.51663e-05
3.51366e-05
3.51366e-05
3.51404e-05
3.51599e-05
3.51962e-05
3.52529e-05
3.53076e-05
3.54174e-05
3.55119e-05
3.56354e-05
3.57055e-05
3.57995e-05
3.58177e-05
3.58587e-05
3.57948e-05
3.57873e-05
3.56548e-05
3.56101e-05
3.54187e-05
3.53666e-05
3.51312e-05
3.51064e-05
3.48555e-05
3.48701e-05
3.45751e-05
3.45967e-05
3.42696e-05
3.4355e-05
3.40516e-05
3.42025e-05
3.38932e-05
3.40756e-05
3.37325e-05
3.39252e-05
3.35503e-05
3.37306e-05
3.32688e-05
3.33404e-05
3.26722e-05
3.24925e-05
3.14565e-05
3.07956e-05
2.91613e-05
2.7763e-05
2.52287e-05
2.28449e-05
1.94765e-05
1.66045e-05
1.30275e-05
1.07844e-05
8.42275e-06
7.78935e-06
6.31205e-06
6.0134e-06
5.07141e-06
5.8727e-06
4.9689e-06
4.58738e-06
4.37172e-06
4.43481e-06
3.92063e-06
8.29581e-06
1.34689e-05
2.10569e-05
2.93345e-05
3.23121e-05
3.32545e-05
3.79263e-05
3.28942e-05
1.60759e-05
4.48211e-06
6.30093e-07
5.48482e-08
3.6645e-08
3.07769e-08
2.87981e-08
2.82854e-08
2.95802e-08
2.86259e-08
3.02783e-08
2.74942e-08
2.86544e-08
3.19846e-08
3.17316e-08
2.85202e-08
2.90744e-08
2.7841e-08
2.8823e-08
2.86486e-08
2.91515e-08
2.90662e-08
2.85661e-08
2.87715e-08
2.77875e-08
2.89929e-08
2.84874e-08
3.17364e-08
3.19969e-08
2.83971e-08
2.74076e-08
3.03785e-08
2.86685e-08
2.97513e-08
2.96604e-08
3.34866e-08
4.03574e-08
4.6273e-08
3.3025e-08
3.38379e-08
3.38214e-07
3.36941e-06
1.27887e-05
2.95961e-05
3.90529e-05
3.96149e-05
4.07798e-05
3.96802e-05
3.8492e-05
3.68485e-05
3.56289e-05
3.452e-05
3.42853e-05
3.3743e-05
3.36813e-05
3.35536e-05
3.35924e-05
3.35845e-05
3.3671e-05
3.37273e-05
3.37984e-05
3.38897e-05
3.39231e-05
3.40813e-05
3.40902e-05
3.42572e-05
3.42799e-05
3.44455e-05
3.44646e-05
3.46491e-05
3.4658e-05
3.48846e-05
3.48786e-05
3.50525e-05
3.5065e-05
3.52863e-05
3.5299e-05
3.55299e-05
3.54932e-05
3.56784e-05
3.56627e-05
3.58438e-05
3.57979e-05
3.59676e-05
3.59368e-05
3.61026e-05
3.60736e-05
3.62163e-05
3.61855e-05
3.63112e-05
3.62672e-05
3.63658e-05
3.63129e-05
3.63866e-05
3.63367e-05
3.63951e-05
3.63419e-05
3.63728e-05
3.63086e-05
3.63144e-05
3.62533e-05
3.6221e-05
3.61361e-05
3.60778e-05
3.59871e-05
3.59218e-05
3.58114e-05
3.57028e-05
3.55798e-05
3.54186e-05
3.52145e-05
3.4986e-05
3.47579e-05
3.45165e-05
3.42343e-05
3.39202e-05
3.3586e-05
3.31937e-05
3.27784e-05
3.2336e-05
3.18425e-05
3.12793e-05
3.07512e-05
3.01262e-05
2.94832e-05
2.89046e-05
2.83688e-05
2.77731e-05
2.70603e-05
2.63586e-05
2.56801e-05
2.49448e-05
2.42348e-05
2.35013e-05
2.27421e-05
2.20149e-05
2.12569e-05
2.05666e-05
1.98245e-05
1.91587e-05
1.85268e-05
1.78991e-05
1.73211e-05
1.68015e-05
1.62316e-05
1.58489e-05
1.53908e-05
1.49513e-05
1.45921e-05
1.41551e-05
1.37389e-05
1.33657e-05
1.29491e-05
1.25214e-05
1.20958e-05
1.15912e-05
1.11828e-05
1.06451e-05
1.01768e-05
9.56856e-06
9.01759e-06
8.33716e-06
7.7152e-06
7.00488e-06
6.30996e-06
5.5197e-06
4.79244e-06
4.04188e-06
3.40852e-06
2.77756e-06
2.26207e-06
1.71829e-06
1.29203e-06
8.4388e-07
4.92575e-07
1.94285e-07
1.12383e-07
7.90255e-08
5.50875e-08
2.23333e-08
4.21093e-08
4.89939e-08
3.97287e-08
3.15352e-08
6.39856e-08
4.96144e-08
4.64148e-08
4.05009e-08
3.5201e-08
2.6209e-08
5.1311e-08
5.48725e-08
5.81369e-08
3.44707e-08
3.09151e-08
5.87453e-08
9.575e-08
1.27908e-07
4.95054e-08
7.74221e-08
1.2963e-07
6.1329e-08
5.98169e-08
1.90182e-08
6.50293e-08
9.18419e-08
5.54456e-08
4.23125e-08
5.22683e-08
4.66151e-08
2.10545e-08
1.85052e-08
1.67246e-08
6.02882e-09
1.15913e-08
2.00883e-08
6.43416e-09
3.7275e-09
1.4075e-08
2.19632e-08
4.99924e-09
5.48597e-09
3.91999e-08
4.2955e-08
2.98193e-08
9.59578e-08
1.61174e-07
2.23054e-07
3.46774e-07
5.43092e-07
7.25672e-07
1.05434e-06
1.4994e-06
1.9605e-06
2.48638e-06
3.05471e-06
3.71989e-06
4.43606e-06
5.18906e-06
5.98257e-06
6.77937e-06
7.59874e-06
8.28875e-06
8.95407e-06
9.55589e-06
1.013e-05
1.07149e-05
1.12328e-05
1.18647e-05
1.23186e-05
1.29978e-05
1.33583e-05
1.3958e-05
1.42745e-05
1.46616e-05
1.51782e-05
1.54754e-05
1.59653e-05
1.66202e-05
1.66281e-05
1.76054e-05
1.86178e-05
1.95264e-05
2.02233e-05
2.02039e-05
2.09143e-05
2.11839e-05
2.30656e-05
2.54369e-05
2.67111e-05
2.72051e-05
2.71668e-05
2.76395e-05
2.7528e-05
2.74474e-05
2.77056e-05
2.81643e-05
2.86307e-05
2.92167e-05
3.02708e-05
3.12828e-05
3.18654e-05
3.21719e-05
3.28862e-05
3.40999e-05
3.52884e-05
3.59207e-05
3.60175e-05
3.60789e-05
3.66648e-05
3.80435e-05
3.98133e-05
4.14139e-05
4.2606e-05
4.35589e-05
4.42926e-05
4.46574e-05
4.46816e-05
4.46392e-05
4.46603e-05
4.47266e-05
4.48104e-05
4.4925e-05
4.50596e-05
4.52307e-05
4.53988e-05
4.56365e-05
4.58567e-05
4.61238e-05
4.63266e-05
4.65575e-05
4.66914e-05
4.68416e-05
4.68627e-05
4.69246e-05
4.68416e-05
4.68303e-05
4.66644e-05
4.66175e-05
4.63948e-05
4.63581e-05
4.61214e-05
4.61141e-05
4.58445e-05
4.5836e-05
4.5542e-05
4.5585e-05
4.53315e-05
4.54358e-05
4.521e-05
4.53427e-05
4.5114e-05
4.52406e-05
4.49976e-05
4.50772e-05
4.4745e-05
4.46622e-05
4.40992e-05
4.3698e-05
4.27328e-05
4.18076e-05
4.02493e-05
3.86723e-05
3.64007e-05
3.40493e-05
3.10791e-05
2.81966e-05
2.47197e-05
2.16053e-05
1.79999e-05
1.53931e-05
1.26216e-05
1.09744e-05
8.92299e-06
8.67899e-06
7.78024e-06
7.74055e-06
6.90825e-06
7.49646e-06
6.51414e-06
5.02145e-06
7.59771e-06
1.45342e-05
2.75619e-05
3.50388e-05
3.51102e-05
3.82579e-05
3.49838e-05
1.85911e-05
5.58291e-06
9.56082e-07
6.40096e-08
3.64982e-08
3.04893e-08
2.75036e-08
2.70897e-08
2.90915e-08
2.84386e-08
3.02838e-08
2.75442e-08
2.876e-08
3.19331e-08
3.17131e-08
2.84237e-08
2.91453e-08
2.77913e-08
2.88931e-08
2.86804e-08
2.91219e-08
2.92035e-08
2.87236e-08
2.8915e-08
2.78774e-08
2.9127e-08
2.84506e-08
3.18303e-08
3.20821e-08
2.86681e-08
2.74976e-08
3.04383e-08
2.86322e-08
2.91937e-08
2.67792e-08
2.39407e-08
1.94882e-08
2.23476e-08
2.95344e-08
3.28624e-08
1.62627e-07
2.16614e-06
9.48407e-06
2.5134e-05
3.69939e-05
3.93903e-05
4.11488e-05
4.13973e-05
4.0996e-05
4.03347e-05
3.97492e-05
3.9158e-05
3.90265e-05
3.85259e-05
3.87028e-05
3.84005e-05
3.86382e-05
3.85003e-05
3.8724e-05
3.86935e-05
3.88877e-05
3.89081e-05
3.9063e-05
3.91513e-05
3.92727e-05
3.94025e-05
3.95069e-05
3.96379e-05
3.97551e-05
3.99044e-05
3.99915e-05
4.01989e-05
4.02655e-05
4.0425e-05
4.05094e-05
4.07091e-05
4.07797e-05
4.09701e-05
4.09921e-05
4.11619e-05
4.12087e-05
4.1359e-05
4.13595e-05
4.15105e-05
4.1516e-05
4.16463e-05
4.16481e-05
4.17581e-05
4.17357e-05
4.18235e-05
4.17826e-05
4.18399e-05
4.1774e-05
4.18068e-05
4.17306e-05
4.17444e-05
4.16572e-05
4.16346e-05
4.15257e-05
4.14668e-05
4.13465e-05
4.1243e-05
4.10949e-05
4.09585e-05
4.07886e-05
4.06275e-05
4.04252e-05
4.0213e-05
3.99852e-05
3.97027e-05
3.93735e-05
3.9007e-05
3.86369e-05
3.82436e-05
3.7797e-05
3.73088e-05
3.67913e-05
3.61948e-05
3.55812e-05
3.49273e-05
3.42013e-05
3.34043e-05
3.26602e-05
3.1803e-05
3.08983e-05
3.00255e-05
2.9243e-05
2.8454e-05
2.74943e-05
2.65468e-05
2.56223e-05
2.46391e-05
2.36944e-05
2.2735e-05
2.17476e-05
2.08067e-05
1.98309e-05
1.89634e-05
1.80138e-05
1.71887e-05
1.63758e-05
1.55931e-05
1.48422e-05
1.41836e-05
1.34233e-05
1.29113e-05
1.22559e-05
1.16812e-05
1.1121e-05
1.05437e-05
9.91666e-06
9.3452e-06
8.73009e-06
8.0471e-06
7.39189e-06
6.60238e-06
5.94818e-06
5.14239e-06
4.48432e-06
3.70036e-06
3.09565e-06
2.41859e-06
1.95123e-06
1.42778e-06
1.05185e-06
5.907e-07
3.79926e-07
1.72541e-07
1.33226e-07
6.7001e-08
8.21601e-08
4.98139e-08
5.78242e-08
4.1065e-08
5.69059e-08
3.64539e-08
5.13259e-08
3.60716e-08
4.93778e-08
4.09278e-08
5.22289e-08
3.71797e-08
5.52353e-08
4.08357e-08
4.71934e-08
3.68168e-08
6.51917e-08
6.06173e-08
8.06903e-08
6.28617e-08
6.38127e-08
5.669e-08
6.9243e-08
7.36708e-08
7.24152e-08
6.02091e-08
2.52861e-08
4.10613e-08
3.12409e-08
6.11836e-08
4.16376e-08
6.69509e-08
1.13505e-07
1.06808e-07
1.20519e-07
9.71361e-08
3.56301e-08
2.79701e-08
2.24987e-08
2.18287e-08
2.91156e-08
3.09837e-08
2.6148e-08
1.63681e-08
1.5276e-08
1.9158e-08
1.39806e-08
1.50591e-08
1.45136e-08
1.89666e-08
1.80577e-08
1.81765e-08
2.32743e-08
2.54993e-08
2.24159e-08
3.09924e-08
2.91964e-08
2.18905e-08
2.51198e-08
1.56474e-08
1.37174e-08
1.04206e-08
2.25476e-08
2.9233e-08
7.84836e-08
1.22501e-07
2.27212e-07
4.21982e-07
6.30774e-07
9.70126e-07
1.37646e-06
1.95076e-06
2.45032e-06
3.034e-06
3.61736e-06
4.24376e-06
5.01541e-06
5.78188e-06
6.7841e-06
7.55394e-06
8.57686e-06
9.22256e-06
1.01452e-05
1.07654e-05
1.13504e-05
1.21137e-05
1.26688e-05
1.33422e-05
1.40143e-05
1.43682e-05
1.60046e-05
1.73589e-05
1.82563e-05
1.91194e-05
1.90233e-05
1.99438e-05
2.09388e-05
2.27614e-05
2.49562e-05
2.64821e-05
2.71896e-05
2.73696e-05
2.82059e-05
2.83245e-05
2.83609e-05
2.87635e-05
2.95148e-05
3.01692e-05
3.08424e-05
3.20284e-05
3.33311e-05
3.41671e-05
3.45791e-05
3.54075e-05
3.69428e-05
3.85831e-05
3.95869e-05
3.98149e-05
3.98947e-05
4.06031e-05
4.2261e-05
4.44628e-05
4.66646e-05
4.85019e-05
4.99521e-05
5.09903e-05
5.15682e-05
5.17637e-05
5.18427e-05
5.19427e-05
5.20867e-05
5.22591e-05
5.24792e-05
5.27253e-05
5.30221e-05
5.33189e-05
5.36924e-05
5.40481e-05
5.44641e-05
5.48129e-05
5.51946e-05
5.5468e-05
5.57495e-05
5.58869e-05
5.60437e-05
5.6043e-05
5.60883e-05
5.59759e-05
5.59561e-05
5.57711e-05
5.57386e-05
5.55323e-05
5.55187e-05
5.52871e-05
5.52688e-05
5.50191e-05
5.50423e-05
5.48371e-05
5.49161e-05
5.47568e-05
5.48698e-05
5.47322e-05
5.48414e-05
5.47041e-05
5.47614e-05
5.45398e-05
5.44192e-05
5.39682e-05
5.35177e-05
5.26807e-05
5.17257e-05
5.03456e-05
4.88087e-05
4.68377e-05
4.46657e-05
4.21095e-05
3.94521e-05
3.64175e-05
3.35131e-05
3.01067e-05
2.71666e-05
2.36821e-05
2.08698e-05
1.75243e-05
1.49772e-05
1.28184e-05
1.11717e-05
1.01857e-05
9.42761e-06
9.35769e-06
8.32617e-06
5.45741e-06
8.42897e-06
2.22993e-05
3.52051e-05
3.89927e-05
4.068e-05
3.77578e-05
2.12749e-05
6.84246e-06
1.38574e-06
8.44629e-08
3.59241e-08
3.84561e-08
3.29419e-08
2.88733e-08
2.93709e-08
2.87433e-08
3.02514e-08
2.74816e-08
2.84488e-08
3.20198e-08
3.185e-08
2.84061e-08
2.90919e-08
2.78592e-08
2.87629e-08
2.86528e-08
2.91625e-08
2.90538e-08
2.85282e-08
2.8739e-08
2.77995e-08
2.89833e-08
2.84088e-08
3.15894e-08
3.19283e-08
2.84415e-08
2.74132e-08
3.0492e-08
2.87009e-08
2.9437e-08
2.88742e-08
2.86783e-08
2.08937e-08
1.76439e-08
2.83412e-08
3.65411e-08
7.29135e-08
1.23167e-06
6.53297e-06
2.00603e-05
3.38141e-05
3.83004e-05
4.04987e-05
4.19886e-05
4.21009e-05
4.20783e-05
4.19681e-05
4.17081e-05
4.18477e-05
4.1615e-05
4.18083e-05
4.16986e-05
4.19158e-05
4.18948e-05
4.21042e-05
4.21439e-05
4.23449e-05
4.24045e-05
4.25922e-05
4.26892e-05
4.28685e-05
4.29966e-05
4.31601e-05
4.32837e-05
4.34636e-05
4.36031e-05
4.37555e-05
4.39482e-05
4.40868e-05
4.42317e-05
4.43704e-05
4.45497e-05
4.46767e-05
4.48338e-05
4.49055e-05
4.50619e-05
4.51572e-05
4.52844e-05
4.53246e-05
4.54523e-05
4.54876e-05
4.55827e-05
4.56034e-05
4.56767e-05
4.56543e-05
4.57003e-05
4.56485e-05
4.56605e-05
4.55752e-05
4.55575e-05
4.54491e-05
4.5409e-05
4.52789e-05
4.51912e-05
4.50298e-05
4.48947e-05
4.47085e-05
4.45223e-05
4.43036e-05
4.40759e-05
4.38166e-05
4.35469e-05
4.32428e-05
4.29157e-05
4.25714e-05
4.21531e-05
4.16901e-05
4.11765e-05
4.06569e-05
4.00984e-05
3.94766e-05
3.88035e-05
3.80909e-05
3.72823e-05
3.64671e-05
3.55941e-05
3.46326e-05
3.36077e-05
3.26479e-05
3.15542e-05
3.03812e-05
2.92211e-05
2.82125e-05
2.72425e-05
2.60535e-05
2.48891e-05
2.37381e-05
2.25369e-05
2.13882e-05
2.02381e-05
1.90544e-05
1.794e-05
1.67846e-05
1.57755e-05
1.46471e-05
1.36974e-05
1.27242e-05
1.18118e-05
1.09025e-05
1.01042e-05
9.12558e-06
8.47311e-06
7.54223e-06
6.79995e-06
5.95621e-06
5.22801e-06
4.38219e-06
3.72371e-06
3.04541e-06
2.4059e-06
1.89208e-06
1.29856e-06
9.81586e-07
4.86672e-07
3.85375e-07
1.3489e-07
1.46549e-07
5.3182e-08
7.23758e-08
3.02525e-08
5.20651e-08
2.2883e-08
4.9272e-08
2.61138e-08
5.3181e-08
2.51885e-08
4.46441e-08
2.29836e-08
4.04582e-08
2.47529e-08
4.07163e-08
2.81109e-08
4.64798e-08
3.59425e-08
4.85362e-08
3.83045e-08
4.58756e-08
3.86218e-08
4.50986e-08
4.03003e-08
5.39741e-08
4.60586e-08
4.43321e-08
3.23451e-08
3.46264e-08
3.83502e-08
4.08897e-08
4.85992e-08
3.57086e-08
5.37089e-08
3.7564e-08
8.79732e-08
8.12804e-08
1.49587e-07
1.12699e-07
7.05696e-08
8.80002e-08
5.22573e-08
9.04049e-08
3.43902e-08
8.07624e-08
2.82626e-08
2.76248e-08
1.04101e-07
7.40808e-08
6.88944e-08
4.51972e-08
5.0256e-08
3.65176e-08
3.7501e-08
3.01568e-08
3.29494e-08
2.63922e-08
2.73832e-08
2.31863e-08
2.60176e-08
2.25812e-08
2.64037e-08
1.85489e-08
2.04364e-08
1.09613e-08
1.13515e-08
6.5005e-09
5.9257e-09
5.7683e-09
5.55588e-09
7.79347e-09
8.42303e-09
8.86406e-09
5.31165e-09
5.58443e-09
4.83139e-09
4.78206e-09
9.41997e-09
7.15497e-09
2.63221e-08
1.39915e-08
6.8666e-08
5.98359e-08
1.67683e-07
2.60281e-07
3.83119e-07
6.89027e-07
9.3406e-07
1.62332e-06
1.98952e-06
2.85106e-06
3.37399e-06
4.42177e-06
5.2535e-06
6.01043e-06
7.07221e-06
7.98653e-06
8.91995e-06
9.56877e-06
1.03079e-05
1.2756e-05
1.43881e-05
1.52639e-05
1.60778e-05
1.60247e-05
1.71323e-05
1.87242e-05
2.05213e-05
2.24235e-05
2.40564e-05
2.50174e-05
2.54275e-05
2.663e-05
2.7042e-05
2.72553e-05
2.77816e-05
2.89148e-05
2.97977e-05
3.05528e-05
3.18301e-05
3.34037e-05
3.45355e-05
3.50784e-05
3.59578e-05
3.77358e-05
3.98109e-05
4.12516e-05
4.16739e-05
4.17625e-05
4.25115e-05
4.43529e-05
4.68817e-05
4.96385e-05
5.21552e-05
5.41637e-05
5.55611e-05
5.63815e-05
5.67817e-05
5.70171e-05
5.72196e-05
5.74549e-05
5.77248e-05
5.80581e-05
5.84265e-05
5.88592e-05
5.92966e-05
5.98157e-05
6.03147e-05
6.08846e-05
6.13895e-05
6.19316e-05
6.23633e-05
6.2795e-05
6.30744e-05
6.33505e-05
6.34643e-05
6.35922e-05
6.35636e-05
6.35955e-05
6.34725e-05
6.34649e-05
6.33057e-05
6.3303e-05
6.31215e-05
6.31113e-05
6.29167e-05
6.29393e-05
6.27862e-05
6.28588e-05
6.27596e-05
6.2872e-05
6.28134e-05
6.29321e-05
6.28884e-05
6.29633e-05
6.28535e-05
6.27598e-05
6.2444e-05
6.20393e-05
6.13764e-05
6.05125e-05
5.93701e-05
5.79915e-05
5.63405e-05
5.44177e-05
5.22804e-05
4.98925e-05
4.7351e-05
4.46561e-05
4.17578e-05
3.89011e-05
3.57093e-05
3.27894e-05
2.94181e-05
2.62868e-05
2.26977e-05
1.97724e-05
1.5956e-05
1.40209e-05
1.14161e-05
1.132e-05
9.27275e-06
5.76288e-06
1.51221e-05
3.01756e-05
4.17314e-05
4.46492e-05
4.20116e-05
2.45158e-05
8.32418e-06
1.8281e-06
1.24768e-07
2.46548e-08
2.29504e-08
2.84828e-08
2.7697e-08
2.91158e-08
2.85265e-08
3.02981e-08
2.75571e-08
2.88049e-08
3.20293e-08
3.1835e-08
2.8366e-08
2.91528e-08
2.78308e-08
2.89239e-08
2.86985e-08
2.91504e-08
2.92276e-08
2.87704e-08
2.89587e-08
2.78074e-08
2.90948e-08
2.83725e-08
3.17192e-08
3.21579e-08
2.8553e-08
2.73615e-08
3.0366e-08
2.86125e-08
2.93096e-08
2.83874e-08
3.15783e-08
3.23055e-08
3.03504e-08
3.22689e-08
3.78503e-08
3.82729e-08
4.90193e-07
4.11411e-06
1.48613e-05
2.92341e-05
3.62354e-05
3.87274e-05
4.13355e-05
4.21079e-05
4.26438e-05
4.29875e-05
4.30152e-05
4.3322e-05
4.32587e-05
4.35716e-05
4.35151e-05
4.38307e-05
4.38133e-05
4.41071e-05
4.413e-05
4.43977e-05
4.44584e-05
4.46952e-05
4.47992e-05
4.50238e-05
4.51676e-05
4.5363e-05
4.55017e-05
4.57254e-05
4.58752e-05
4.60613e-05
4.62615e-05
4.64376e-05
4.6596e-05
4.67607e-05
4.69397e-05
4.70892e-05
4.72426e-05
4.73434e-05
4.74983e-05
4.76219e-05
4.774e-05
4.78009e-05
4.79121e-05
4.79598e-05
4.80208e-05
4.80508e-05
4.80815e-05
4.80558e-05
4.80495e-05
4.7986e-05
4.79395e-05
4.78308e-05
4.77566e-05
4.76131e-05
4.75055e-05
4.73281e-05
4.71655e-05
4.69437e-05
4.67226e-05
4.64649e-05
4.61872e-05
4.5891e-05
4.55601e-05
4.52027e-05
4.48145e-05
4.44022e-05
4.39504e-05
4.34802e-05
4.29148e-05
4.23123e-05
4.16431e-05
4.09674e-05
4.02315e-05
3.94263e-05
3.85612e-05
3.76485e-05
3.66258e-05
3.56094e-05
3.45127e-05
3.33153e-05
3.20722e-05
3.08983e-05
2.95677e-05
2.81333e-05
2.67126e-05
2.55061e-05
2.43741e-05
2.29759e-05
2.16301e-05
2.02793e-05
1.88982e-05
1.75791e-05
1.62703e-05
1.49249e-05
1.36693e-05
1.23622e-05
1.12275e-05
9.90282e-06
8.81079e-06
7.61158e-06
6.54551e-06
5.43609e-06
4.56171e-06
3.47477e-06
2.96436e-06
2.02362e-06
1.68189e-06
9.44517e-07
8.32439e-07
2.37055e-07
3.32549e-07
6.88833e-08
1.42349e-07
3.05508e-08
8.77083e-08
2.5405e-08
6.42266e-08
3.35429e-08
4.76688e-08
2.82741e-08
5.22645e-08
2.05939e-08
7.20394e-08
2.12113e-08
7.04506e-08
2.21942e-08
5.73643e-08
2.13491e-08
6.0529e-08
2.53057e-08
7.57818e-08
2.68583e-08
7.6898e-08
2.8935e-08
7.05377e-08
2.46257e-08
6.31658e-08
2.19253e-08
6.67878e-08
2.30184e-08
7.59665e-08
2.53772e-08
7.01292e-08
2.26246e-08
6.56915e-08
3.23868e-08
8.54716e-08
4.46827e-08
8.32181e-08
4.07244e-08
8.15107e-08
4.70186e-08
8.53439e-08
4.53965e-08
5.59398e-08
3.01743e-08
2.06466e-08
4.08013e-08
5.05274e-08
5.96462e-08
8.38635e-08
7.53339e-08
8.19968e-08
7.01342e-08
7.02022e-08
9.86616e-08
1.73263e-07
7.68426e-08
7.37049e-08
4.15074e-08
5.04476e-08
2.88455e-08
4.5196e-08
2.33457e-08
4.28359e-08
1.93296e-08
3.61047e-08
1.2913e-08
2.28049e-08
6.68832e-09
1.1582e-08
4.20656e-09
6.84073e-09
4.08466e-09
5.75943e-09
5.92482e-09
6.11203e-09
9.23132e-09
5.78177e-09
9.21494e-09
7.26073e-09
1.20622e-08
1.38316e-08
1.0728e-08
1.68829e-08
5.746e-09
1.58042e-08
2.18108e-09
9.44636e-09
3.2027e-09
8.56527e-09
4.35221e-09
9.14073e-09
6.37591e-09
1.12402e-08
2.07237e-08
2.50399e-09
1.22333e-07
1.66732e-09
3.02971e-07
4.81521e-08
4.78045e-07
8.75918e-07
1.06411e-06
1.62991e-06
2.44791e-06
3.43056e-06
3.49235e-06
4.40233e-06
7.82433e-06
9.79321e-06
1.06454e-05