/*--------------------------------*- C++ -*----------------------------------*\
| =========                 |                                                 |
| \\      /  F ield         | OpenFOAM: The Open Source CFD Toolbox           |
|  \\    /   O peration     | Version:  v2006                                 |
|   \\  /    A nd           | Website:  www.openfoam.com                      |
|    \\/     M anipulation  |                                                 |
\*---------------------------------------------------------------------------*/
FoamFile
{
    version     2.0;
    format      ascii;
    class       volScalarField;
    location    "150";
    object      ducSensor;
}
// * * * * * * * * * * * * * * * * * * * * * * * * * * * * * * * * * * * * * //

dimensions      [0 0 0 0 0 0 0];


internalField   nonuniform List<scalar> 
93840
(
0.0228694
0
0
0
0.03241
0.0313718
0
0
0.0169006
0.0467846
0.0096111
0
0
0.0576905
0
0
0
0
0
0
0
0
0
0
0
0
0
0.0116538
0
0
0
0.0270063
0.00187267
0
0
0
0
0
0
0
0
0
0
0
0
0
0
0
0
0
0
0
0
0
0
8.92089e-05
4.97605e-05
0.000137351
0
0
4.3548e-05
0
0
0
0
0
6.18774e-05
0.000178319
4.6122e-05
0.000138477
6.68855e-05
0.000212133
0.000126457
0.00016618
0.000107627
0.000187306
0.000207969
0.000299133
0.000324274
0.000278111
0.000291576
0.000292919
0.000287764
0.000310087
0.000291195
0.00029836
0.000315149
0.000308675
0.000316319
0.000371843
0.000412153
0.000425433
0.000425614
0.0004385
0.000456162
0.00046723
0.000469328
0.000480698
0.000500357
0.000525966
0.000526012
0.000528539
0.000697987
0.00086574
0.000610259
0.000334333
0.000480656
0.000680391
0.000682271
0.000664607
0.000655227
0.000652164
0.000721554
0.000739694
0.000701967
0.000639765
0.000626296
0.000583478
0.000490756
0.000421505
0.000342042
0.000206187
5.76117e-08
0
0
0
0
0
0
0
0
0
0
0
0
0
0
0
0
0
0
0
0
0
0
0
0
0
0
0
0
0
0
0
0
0
0
0
0
0
0
0
0
0
0
0
0
0
0
0
0
0
0
0
0
0
0
0
0
0
0.0256282
0
0
0
0
0
0
0
0
0
0
0
0
0
0
0
0
0
0
0
0
0
9.67124e-05
0
0
0
0
0
0
0
0
0
0
0
0
0
0
0
0
0
0
0
0.000180812
0.00012981
0.000174393
0
8.98848e-05
0.000228911
0.000202044
8.5353e-05
0
0
0
0
0
0.000127446
0.000148671
0.000174041
0.0001714
0.000139668
8.0518e-05
4.83243e-05
0.000145534
0.000442975
0.00111004
0.00302462
0.00527147
0.0049873
0.00187772
0
0
0
0
0.000337114
0.000612946
0.00123362
0.00186236
0.00179525
0.00137676
0.00103417
0.000928048
0.000846816
0.000805515
0.000786823
0.000769657
0.000733108
0.000715055
0.000910328
0.00105301
0.000720487
0.000365897
0.000631575
0.00103619
0.000871516
0.000501166
0.000510531
0.000758077
0.000852298
0.000783922
0.000764698
0.00078342
0.000815159
0.000832821
0.000869456
0.000878148
0.000860289
0.00085827
0.000863054
0.000876194
0.000878611
0.000924726
0.000909559
0.000966586
0.000962348
0.000985358
0.000990926
0.00101755
0.0010278
0.00107795
0.00108341
0.00110338
0.00114071
0.00117396
0.00129183
0.00124863
0.00119974
0.00133064
0.00119411
0.00138897
0.00125372
0.00167329
0.00145238
0.00168549
0.00129426
0.00197716
0.00141147
0.00194543
0.00114358
0.00234856
0.00164615
0.00238524
0.000654191
0.00361708
0.000725003
0.00388237
0.000850529
0.004843
0.00189172
0.00767055
0.000863035
0.0102719
0
0
0.0145778
0.00936225
0.0593588
0
0.0108026
0
0
0
0
0
0
0
0
0
0
0
0
0.0583352
0
0.0641639
0.00898055
0.034581
0
0
0
0.01507
0.00894977
0
0
0.0183494
0.00185896
0
0
0
0.0544313
0.0251553
0.0135997
0
0.0433613
0
0.0377035
0
0
0
0.00270594
0
0.0159392
0.0327282
0.0211647
0
0
0
0
0.167167
0
0
0.00588097
0.0192859
0.0155294
0.0228305
0.0345629
0.061675
0.0870837
0
0
0.0234292
0
0
0
0
0
0
0.00233933
0
0
0
0.00377146
0.0013864
0.00466591
0.00438786
0
0
0.00247235
0
0
0
0.00412478
0
0
0
0.00273451
0.0059155
0.00588528
0
0
0.00335694
0.0017131
0.00143138
0.000546292
0.000902927
0.000293507
0.00135484
0.00246002
0.00150478
0.00131184
0.000519063
0.00207011
0.00133117
0.000944132
0.000644622
0.00130173
0.00139779
0.00197511
0.00219611
0.00182916
0.00209041
0.00189181
0.00163598
0.00157472
0.00153242
0.00157128
0.00178118
0.00182496
0.0018635
0.00204211
0.00208399
0.00220116
0.00219825
0.00223662
0.00231912
0.00241624
0.00248907
0.00254472
0.00261836
0.00271416
0.00275611
0.00277067
0.00338523
0.00423636
0.00351777
0.00236707
0.00290674
0.00365434
0.00372191
0.00369138
0.0037151
0.00375007
0.00424864
0.004543
0.00433727
0.00396583
0.00382036
0.00332266
0.00275845
0.00200559
0.00167063
4.35048e-05
0
0
0
0
0
0
0
0
0
0
0
0
0
0
0
0
0
0
0
0
0
0
0
0
0
0
0
0
0
0
0
0
0
0
0
0
0
0
0
0
0
0
0
0
0
0
0
0
0
0
0
0
0
0.0105969
0.381082
0
0.159413
0
0
0.461216
0.538365
0.233951
0
0
0
0
0
0
0
0
0
0
0
0
0
0
0
0
0
0
0
0
0
0
0
0
0
0
0
0
0
0
0
0
0
0
0
0
0
0
0
0
0
0
0
0
0.000381444
0
0
0
0
0
0
0
0
0.000215239
7.56337e-05
0
0
0
0.000564415
0.00306986
0.0112569
0.0313933
0.0401368
0.0224476
0.00944836
0.000668883
0
0.00143616
0.00133038
0.00393986
0.00600601
0.0104939
0.0136856
0.0126096
0.00945877
0.00762099
0.00688766
0.00623523
0.00599985
0.00597499
0.00592238
0.00573608
0.00549053
0.00587624
0.00598479
0.00484488
0.00404014
0.00497601
0.00587706
0.00522923
0.00434242
0.00439336
0.00482903
0.00484228
0.00461043
0.00449768
0.00435192
0.00428083
0.00409084
0.00402903
0.00375997
0.00355887
0.00349366
0.0033194
0.00317334
0.00293851
0.00304297
0.00265931
0.00276837
0.00247654
0.00225461
0.00200187
0.00167162
0.00140241
0.00119489
0.00111154
0.000749037
0.00081614
4.91483e-05
0.000274591
0
0
0
0
0
0
0
0
0
0
0
0
0
0
0
0
0
0
0
0
0
0
0
0
0
0
0.00334457
0
0
0
0.00731281
0
0.906143
0.217226
0.0461865
0.0264381
0.0280592
0.021857
0.00946708
0.00974933
0.0122286
0.0209315
0.0174843
0.00500305
0
0
0
0
0
0.128723
0
0
0.0593757
0
0
0.00854368
0
0.00314217
0.0291521
0.0198903
0
0
0
0.0231398
0.0278389
0
0.0104278
0.0156316
0.0095424
0
0.0528204
0.199931
0.0131259
0.0257518
0.0254607
0.00390751
0.0178231
0.0249903
0.0420478
0.0176268
0
0
0
0
0
0
0
0
0
0
0
0.0364938
0
0
0
0.400386
0
0
0
0
0
0
0
0
0
0
0
0
0
0
0
0
0
0
0
0
0
0
0
0
0.00525066
0.000584404
0
0
0.000486957
0
0
0
0
0
0.00125509
0.0027462
0.000388878
0.00167983
0.00207709
0.00214884
0.00166052
0.00208201
0.00184254
0.00233123
0.00276134
0.00376596
0.00410377
0.0035726
0.00370809
0.0036294
0.00354468
0.00372329
0.0035297
0.00361722
0.00381866
0.00378502
0.00385735
0.00440177
0.00479439
0.00493891
0.00492332
0.00500311
0.00519638
0.00539043
0.00541324
0.00550344
0.00567723
0.00587109
0.00589298
0.00585808
0.00769069
0.00989776
0.00737805
0.00398046
0.00557224
0.0076689
0.0079068
0.00783059
0.00781818
0.00779754
0.00869675
0.00935671
0.00896144
0.00857698
0.00886194
0.00827231
0.00732489
0.00570948
0.00528937
0.0022837
0.00160375
0
0
0
0
0
0
0
0
0
0
0
0
0
0
0
0
0
0
0
0
0
0
0
0
0
0
0
0
0
0
0
0
0
0
0
0
0
0
0
0
0
0
0
0
0
0
0
0
0
0
0
0
0
0
0
0
0.274775
0
0
0
0
0
0
0
0
0
0
0
0
0
0
0
0
0
0
0
0
0
0
0.0426954
0
0
0
0.008993
0.0116826
0
0
0
0.00853869
0
0
0
0
0
0
0
0
0
0
0
0.00291483
0.00238053
0
0
0.00222924
0.00180084
0
0
0
0
0
0
0.000634369
0.000919048
0.00146645
0.00122533
0.00115069
0
0
0.000659202
0.00735101
0.0147162
0.0522401
0.0637055
0.0538599
0.0143665
0
0
0
0
0.00352141
0.0077641
0.0158166
0.021649
0.0203436
0.014313
0.0107435
0.00979647
0.00912998
0.00886677
0.00882157
0.00872734
0.00829557
0.00813727
0.0100082
0.0111339
0.00763255
0.00476382
0.00773497
0.0113286
0.00974468
0.00611959
0.00632107
0.0087093
0.00942189
0.00869153
0.00848434
0.00859702
0.00883025
0.00891791
0.00915359
0.00910895
0.00884321
0.00875537
0.0086658
0.00869216
0.00861494
0.00890112
0.00867782
0.00903703
0.00886791
0.0088926
0.00880104
0.00875748
0.00865535
0.00877115
0.00871472
0.00860774
0.00888362
0.00876598
0.0094613
0.00870272
0.0084249
0.00868568
0.00808337
0.00866219
0.00814914
0.0097178
0.00890118
0.00928964
0.0078116
0.0101744
0.00793165
0.00934814
0.00619801
0.00921567
0.0081543
0.00790664
0.00476849
0.0103
0.00418196
0.0101268
0.00226338
0.00831027
0.00887628
0
0.0115221
0.0167353
0
0.00769386
0.00551387
0.0342929
0.0392285
0
0.019457
0.283301
0.021971
0
0.000125651
0
0
0
0
0
0
0
0
0
0
0
0
0
0.0306255
0
0.0719019
0.033115
0
0.0171098
0.0348161
0
0
0.0213174
0
0
0.0441082
0.00406302
0
0
0
0.00512344
0
0
0
0.00305282
0.029438
0
0.065348
0
0
0.00583538
0
0
0.0388309
0
0
0
0
0
0.00323009
0
0.00685319
0
0.017003
0.0113547
0
0
0
0
0
0
0
0
0
0
0
0
0
0
0
0
0
0
0
0
0
0
0
0
0
0
0
0.00790105
0.00151048
0
0
8.73268e-05
0.00099858
0
0
0.000310359
0
0.00178998
0.0041006
0.000921835
0.0013488
0.00229
0.00234887
0.00241319
0.00168843
0.00201792
0.00260124
0.00293519
0.00408034
0.00447238
0.00388872
0.00410759
0.003915
0.0037469
0.00382787
0.00364464
0.00373659
0.00398065
0.00397719
0.00405171
0.00457046
0.00492989
0.00511286
0.00510726
0.00518005
0.00536699
0.00555011
0.00558893
0.00566556
0.00586605
0.00609177
0.00615822
0.00618222
0.008066
0.0103324
0.00778207
0.00436337
0.0059904
0.0082318
0.00855191
0.00858109
0.00863352
0.00868674
0.00988907
0.0107383
0.0105289
0.010311
0.0107801
0.0101204
0.00852698
0.00651152
0.0055767
0.00224532
0.000586627
0
0
0
0
0
0
0
0
0
0
0
0
0
0
0
0
0
0
0
0
0
0
0
0
0
0
0
0
0
0
0
0
0
0
0
0
0
0
0
0
0
0
0
0
0
0
0
0
0
0
0
0
0
0
0
0
0
0.138495
0.0845354
0
0
0
0
0
0
0
0
0
0
0
0
0
0
0
0
0
0
0
0
0
0.520971
0
0.041786
0.131906
0.0884253
0
0
0
0
0
0
0
0
0.00274016
0
0
0
0
0
0
0
0
0
0
0
0.00209086
0
0
0
0
0
0
0
0
0.000724676
0.000779292
0.000323003
0
0
0
0.00813951
0.0201375
0.060264
0.0738286
0.0815186
0.0166154
0
0
0
0
0.00372582
0.00864367
0.0185753
0.0254504
0.0232889
0.0164048
0.0121922
0.0109958
0.0101184
0.00975783
0.00972214
0.00968127
0.00932766
0.00910257
0.0108289
0.0117961
0.00844666
0.00562963
0.00858606
0.0119015
0.0104497
0.00715153
0.00726888
0.00943077
0.010077
0.00941496
0.00919815
0.00921831
0.00934985
0.00935614
0.00949663
0.0093498
0.00906648
0.00896642
0.00882307
0.0087724
0.00861108
0.00886638
0.00853443
0.00884351
0.00859131
0.00851133
0.0083631
0.00816242
0.00795561
0.00791266
0.00788051
0.00755379
0.00787519
0.00736915
0.00802512
0.00681447
0.00674368
0.00668366
0.0062744
0.00652972
0.00619739
0.0072937
0.0067716
0.00672946
0.00567429
0.00735312
0.00559178
0.0057755
0.00334827
0.00563598
0.0048735
0.00379721
0.00072246
0.00588876
0
0.00532556
0
0.00599898
0.00434306
0.00817733
0
0.0129119
0
0
0.00585468
0.016196
0.00246803
0.000640978
0
0.0149647
0.0599297
0
0.049068
0.000178377
0
0
0
0
0
0
0
0.0462861
0
0.00750889
0
0.0779181
0
0.0106385
0
0.010479
0
0
0
0
0.0255433
0.0170719
0
0
0.0170278
0.0283903
0.00946187
0.0130205
0.00365366
0
0.0322682
0
0
0.0180689
0.0370602
0
0
0.162917
0
0
0.00939791
0
0
0
0
0
0
0
0.00497566
0
0.00359965
0
0
0
0
0
0.0172855
0
0
0
0
0
0
0
0
0
0
0
0
0
0
0
0
0
0
0
0
0
0
0
0
0.00906918
0.000479384
0
0
0.000688809
3.45952e-05
0
0
0.000187346
0
0.00183039
0.00444205
0.000945242
0.00185997
0.00242876
0.00227999
0.00256876
0.00192501
0.00232922
0.00281503
0.0031842
0.00459656
0.00494911
0.00438148
0.0045769
0.00438459
0.00421497
0.00428808
0.00410361
0.00417809
0.00443504
0.00441778
0.00451536
0.00512472
0.00555195
0.00575082
0.00576973
0.00586883
0.00605401
0.00623226
0.00627607
0.00640889
0.00665196
0.0069648
0.00707577
0.00718543
0.00945063
0.0120585
0.0089923
0.00505309
0.00709734
0.00993291
0.0103959
0.0105741
0.0107543
0.0110045
0.0126636
0.0138282
0.0138622
0.0139012
0.015005
0.0144101
0.012321
0.00962517
0.00792433
0.00352942
0
0
0
0
0
0
0
0
0
0
0
0
0
0
0
0
0
0
0
0
0
0
0
0
0
0
0
0
0
0
0
0
0
0
0
0
0
0
0
0
0
0
0
0
0
0
0
0
0
0
0
0
0
0
0
0
0
0.602679
0
0.186654
0
0
0
0
0
0
0
0
0
0
0
0
0
0
0
0
0
0
0
0.124426
0
0
0.394231
0.0171556
0.206002
0
0.114214
0
0
0
0
0
0.100973
0.0553677
0
0
0
0
0
0
0.00141874
0.00195447
0.00742895
0.00937228
0
0
0.0135292
0.00161677
0
0
0
0
0
0
0
0.000552217
0.00109328
0
0
0
0.000289903
0.00760132
0.036157
0.067602
0.1013
0.0920058
0.0248156
0
0
0
0
0.00324012
0.0092776
0.0211087
0.0304247
0.0274868
0.0190491
0.0136588
0.0122856
0.0113051
0.0108295
0.0106881
0.0106196
0.0102753
0.0100514
0.0119868
0.0130644
0.00938663
0.00607931
0.00917113
0.0130977
0.0115165
0.00783482
0.00796981
0.0103832
0.0111758
0.0104632
0.0101995
0.0102256
0.010364
0.0103728
0.0105029
0.010362
0.0100722
0.00995272
0.00981664
0.00977161
0.00960654
0.00985595
0.00952407
0.00982239
0.00957065
0.00947766
0.00934431
0.00915542
0.00896071
0.00888067
0.00887325
0.00850685
0.00888278
0.00830939
0.00897271
0.00774535
0.00771666
0.0074214
0.00717107
0.00728272
0.00709552
0.00797923
0.0077208
0.00759741
0.00672571
0.00795554
0.00651893
0.00646119
0.00433715
0.00620018
0.00517243
0.00471597
0.00159584
0.00602253
0.00153254
0.0035031
0.001373
0.00788816
0
0.00814229
0.00903861
0
0.00665428
0.00975258
0.00820049
0.000500131
0.00626235
0.0187842
0
0.0464315
0.011899
0
0.098784
0.0323588
0.00905173
0
0
0
0
0
0
0.109525
0
0
0
0
0
0.0267137
0
0.0536368
0.00942146
0
0
0
0
0.00596368
0
0
0
0.0383799
0
0
0.0652529
5.69722e-05
0
0.0120805
0
0.00401265
0.0214552
0.00525929
0
0
0.0160685
0
0
0
0.00420579
0.164084
0
0
0
0
0.00516583
0
0.0027227
0.00435095
0
0.00464738
0
0
0
0
0
0
0
0
0
0
0
0
0
0
0
0
0
0
0
0
0
0
0
0
0
0
0
0.00735817
0
0
0
0
0.00103686
0
0
0.000782953
0
0.00136105
0.00468057
0.000290708
0.00193601
0.00359702
0.00222386
0.00208273
0.0020372
0.00279934
0.00282612
0.00363477
0.00479283
0.00533974
0.00476989
0.00494222
0.00471939
0.00455855
0.00460916
0.00440931
0.00453704
0.0048059
0.00483049
0.00495878
0.00558542
0.0060673
0.00631471
0.00634573
0.0064393
0.00669617
0.00695141
0.00703434
0.00717002
0.00748491
0.0078542
0.00806149
0.00826382
0.0109674
0.0140827
0.0105844
0.00610915
0.00863915
0.0119912
0.0128285
0.0133168
0.0137732
0.0142591
0.0166833
0.0186396
0.0190761
0.0199341
0.021974
0.0215772
0.018589
0.0146252
0.0122079
0.00549599
0.00389324
0
0
0
0
0
0
0
0
0
0
0
0
0
0
0
0
0
0
0
0
0
0
0
0
0
0
0
0
0
0
0
0
0
0
0
0
0
0
0
0
0
0
0
0
0
0
0
0
0
0
0
0
0
0
0
0
0
0.262976
0.519107
0
0
0
0
0
0
0
0
0
0
0
0
0
0
0
0
0
0
0
0.0918782
0.137709
0
0
0.349803
0.393613
0.167204
0
0
0
0.489411
0.128736
0
0
0.443425
0.301789
0.317437
0
0
0
0
0
0.252451
0.0978067
0.0722656
0.0359126
0.0406194
0.0444071
0.0213964
0
0
0
0
0
0
0.00037455
0.00103897
0.00180691
0
0
0
0
0.0107862
0.040225
0.091449
0.146906
0.109938
0.0338391
0
0
0
0
0.00240829
0.0099175
0.0246589
0.0353651
0.0321512
0.0219105
0.0155491
0.0138383
0.012615
0.011964
0.0116951
0.011581
0.0112019
0.0109421
0.0130198
0.0142063
0.0100768
0.00651301
0.00985958
0.013871
0.0122523
0.0084546
0.00857488
0.0111496
0.0119902
0.0112733
0.011027
0.0110551
0.0111908
0.0112246
0.0113469
0.0111885
0.0108879
0.010772
0.0106151
0.0105461
0.0103958
0.0106381
0.010322
0.0106322
0.0104025
0.010306
0.0102227
0.0100069
0.00976845
0.00964515
0.00963994
0.00922867
0.00969286
0.00909313
0.00978821
0.00851959
0.00853273
0.00810534
0.00789637
0.00800458
0.00794039
0.00861972
0.00843308
0.008333
0.00752717
0.00866446
0.00729644
0.00712777
0.00536353
0.00606226
0.00637195
0.00493221
0.00298715
0.00671975
0.00194163
0.00625139
0.000524325
0.00318635
0.00601605
0
0.0108918
0.00764571
0.00138343
0.0084957
0
0
0.00213214
0.0178885
0
0.0311096
0
0
0.00798422
0.0550708
0.0291409
0
0
0
0
0
0
0
0
0.0588765
0.0102918
0
0
0.0484566
0
0.021094
0
0
0.0303726
0.00452225
0.005685
0.0166836
0.0112868
0
0.0126483
0.0279469
0.00609254
0
0
0
0
0
0
0
0.0267484
0
0.0378078
0.00257263
0.018733
0
0.0485773
0
0
0
0
0
0
0
0.00343375
0
0
0
0
0.00504272
0.00266444
0
0
0
0
0
0
0
0
0
0
0
0
0
0
0
0
0
0
0
0
0
0
0
0
0
0
0.00436503
0
0
0
5.08195e-05
0.000280084
0
0
0.000297808
0
0.00111595
0.0049382
0.00144323
0.00179893
0.0015675
0.00319445
0.00296018
0.00172082
0.00265361
0.00322998
0.00364667
0.00514919
0.00567115
0.00511177
0.00529265
0.00506785
0.00493467
0.00496672
0.0047706
0.00489914
0.00516129
0.00517823
0.00534677
0.00609194
0.00664828
0.00691691
0.00700012
0.0071496
0.00741086
0.00768362
0.00781844
0.00806351
0.00847842
0.00900528
0.0093278
0.00974277
0.0130106
0.0166628
0.0126332
0.00758463
0.0108588
0.0152647
0.0165477
0.0175628
0.0185332
0.0197728
0.0236103
0.0268304
0.02875
0.031188
0.0358347
0.0362484
0.032361
0.0263941
0.0248822
0.0188167
0
0
0
0
0
0
0
0
0
0
0
0
0
0
0
0
0
0
0
0
0
0
0
0
0
0
0
0
0
0
0
0
0
0
0
0
0
0
0
0
0
0
0
0
0
0
0
0
0
0
0
0
0
0
0
0
0
0.541758
0.227056
0.147401
0
0
0
0
0
0
0
0
0
0
0
0
0
0
0
0
0
0
0
0
0
0
0
0
0.316762
0.508543
0
0
0
0
0.0716964
0.278171
0
0
0
0.202407
0.08575
0
0
0.26041
0.00331815
0.0296099
0.202451
0.177589
0.226513
0.36605
0.0920977
0.407304
0
0
0
0
0
0.014332
0.00889612
0.0144139
0.0131948
0.00377088
0
0
0.00315722
0.0166716
0.0547285
0.128562
0.193971
0.154826
0.0432163
0
0
0
0
0.0024384
0.0116999
0.0278099
0.0452755
0.0381771
0.0250985
0.0174965
0.0154288
0.0140138
0.0132109
0.0126963
0.0124877
0.0121186
0.0119181
0.014115
0.015327
0.0109537
0.00691023
0.0101643
0.0148175
0.0130009
0.00890283
0.00910578
0.0118297
0.0127887
0.0120529
0.0117587
0.0117902
0.0119267
0.0119469
0.0120494
0.0118977
0.0115943
0.0114395
0.0113044
0.0112519
0.0111017
0.0113329
0.0110364
0.0112961
0.0110767
0.0109776
0.0108998
0.010718
0.0105136
0.0103667
0.0104039
0.0099776
0.0104843
0.00986355
0.0104967
0.00925209
0.00927681
0.00865119
0.00855483
0.00853031
0.00851093
0.00909747
0.00908692
0.00904293
0.00830127
0.00930861
0.0078204
0.00793667
0.00597049
0.00663506
0.00676971
0.00552576
0.00408763
0.00686372
0.00238773
0.00448625
0.00364571
0.000919188
0.00488201
0.00583054
0.00917282
0.00263103
0.00545309
0.00194219
0.00629332
0.00347801
0
0.0195981
0
0.0243562
0.00252774
0
0
0.0440417
0.283301
0.015489
0
0
0
0
0
0
0
0.032416
0
0
0
0.0340316
0
0.0347294
0
0
0.00421724
0.0249143
0.000154892
0
0
0
0.0405322
0
0.00360617
0
0
0
0
0
0.00281477
0
0.0108946
0
0.0220188
0
0
0
0
0
0
0
0
0
0
0
0
0.00214164
0
0.00811779
0
0.0110585
0
0
0
0
0
0
0
0
0
0
0
0
0
0
0
0
0
0
0
0
0
0
0
0
0
0
0
0.00289268
0
0
0
0.000340093
0
0
0
0.000573725
0
0.000301749
0.00382272
0.0011507
0.00350211
0.00190047
0.00257362
0.00243545
0.00240258
0.00258641
0.00332612
0.00407004
0.00524787
0.0059792
0.00544763
0.00560912
0.00538443
0.00526359
0.00527929
0.0050722
0.00525818
0.00554925
0.00562274
0.00586097
0.00662334
0.00726732
0.00761672
0.00774576
0.00792641
0.00833209
0.00873956
0.0089705
0.00930043
0.00986439
0.010566
0.011126
0.01183
0.016046
0.0208234
0.0161471
0.0103098
0.0148271
0.0206641
0.0233168
0.0258746
0.028598
0.0320629
0.0402947
0.0509051
0.0560328
0.0697651
0.0995436
0.0959035
0.122738
0.097222
0.166363
0
0.202871
0
0
0
0
0
0
0
0
0
0
0
0
0
0
0
0
0
0
0
0
0
0
0
0
0
0
0
0
0
0
0
0
0
0
0
0
0
0
0
0
0
0
0
0
0
0
0
0
0
0
0
0
0
0
0
0
0
0.4704
0.733112
0.262034
0
0
0
0
0
0
0
0
0
0
0
0
0
0
0
0
0
0
0
0
0.72476
0
0
0
0.054999
0.552129
0.045021
0.130228
0
0
0.108908
0.599677
0.137155
0
0.179098
0
0.169906
0
0
0.169972
0.228668
0.261815
0.287725
0.188394
0.488873
0.136637
0.401221
0
0
0
0
0
0.283396
0.108762
0.245685
0.0693614
0.0721126
0.00569293
0.000609498
0.0143503
0.0193196
0.148558
0.23994
0.29389
0.235532
0.0698041
0
0
0
0
0.00103251
0.0140748
0.03712
0.040098
0.060966
0.0297078
0.0199031
0.017706
0.0160261
0.0149473
0.01414
0.013793
0.0133518
0.0130686
0.0153413
0.0166585
0.0117119
0.00736598
0.0108153
0.0155517
0.013678
0.00948191
0.00963996
0.0125406
0.0135216
0.0127566
0.0124753
0.0125029
0.012639
0.0126852
0.012782
0.0126031
0.0122892
0.01213
0.0119459
0.0118592
0.0117335
0.0119296
0.0116631
0.0119357
0.0117325
0.0116577
0.011625
0.0114351
0.0111952
0.0109857
0.0109821
0.0105495
0.0111267
0.0105089
0.011191
0.00994929
0.00997412
0.00927722
0.00911977
0.00919397
0.0091582
0.00960169
0.0096057
0.00955324
0.00903909
0.00978447
0.00855775
0.00854513
0.00662381
0.00726817
0.00710834
0.00575188
0.00494668
0.00663321
0.00267614
0.00725282
0.000977893
0.00970931
0
0.00591148
0.0130413
0.00105911
0.00239208
0.00657227
0.0087016
0.00136056
0
0.00788672
0
0.0250361
0
0.0214474
0
0.00388876
0.030816
0.0364578
0
0
0
0
0
0.0272431
0
0
0
0
0
0.0097826
0
0.0152648
0
0
0.00684056
0
0
0.00434732
7.01642e-06
0
0.003416
0.0154671
0.00721578
0
0
0
0.0691258
0.00719294
0
0.0135576
0
0
0.0140794
0
0.0243036
0
0.0383253
0
0
0
0
0
0
0
0
0.000117285
0
0
0
0
0
0
0
0
0
0
0
0
0
0
0
0
0
0
0
0
0
0
0
0
0
0
0
0
0
0
0
0
0
0
0
0
0
0
0
0.00189912
0
0.000608243
0.00298921
0.0011817
0.0021796
0.00208126
0.00402061
0.00221989
0.00213241
0.00284276
0.00343867
0.00421107
0.00559473
0.0063573
0.00583854
0.00599119
0.00582616
0.00571484
0.00574799
0.00551879
0.00576181
0.0060405
0.00612782
0.00642708
0.00740042
0.00817627
0.00859411
0.00884506
0.00915773
0.00962156
0.0101453
0.0105574
0.0111597
0.012057
0.0131915
0.0141596
0.0155113
0.021336
0.028118
0.0227365
0.0158679
0.0233405
0.0349966
0.0398057
0.0483395
0.0577861
0.0739065
0.106143
0.127514
0.168174
0.218587
0.35129
0.285591
0.387898
0.222798
0.38892
0
0.237362
0
0
0
0
0
0
0
0
0
0
0
0
0
0
0
0
0
0
0
0
0
0
0
0
0
0
0
0
0
0
0
0
0
0
0
0
0
0
0
0
0
0
0
0
0
0
0
0
0
0
0
0
0
0
0
0
0.379155
0.318447
0.251824
0
0
0
0
0
0
0
0
0
0
0
0
0
0
0
0
0
0
0
0
0
0
0.189133
0.199452
0
0
0.047344
0
0.172619
0.115759
0
0
0
0.315571
0.0754232
0.176653
0
0
0
0
0
0.118803
0
0.251729
0.207736
0.202872
0.37593
0.304965
0
0
0
0
0
0.0640046
0.250543
0.186567
0.245585
0.0897981
0.15654
0.0137877
0.208241
0.104192
0.47161
0.442885
0.449235
0.356405
0.122532
0
0
0
0
0.0055688
0.0178784
0.0520469
0.0600126
0.0769883
0.0392496
0.0252868
0.0211338
0.0189817
0.0175302
0.0161634
0.0155226
0.0149453
0.0147202
0.0170908
0.0183484
0.0130771
0.0080268
0.0113847
0.0167367
0.0146313
0.009942
0.0101946
0.0132524
0.0143783
0.0135903
0.0132463
0.0132797
0.0134071
0.0134264
0.0134973
0.0133055
0.0129582
0.0127445
0.0125806
0.012521
0.012384
0.0125748
0.0123085
0.0125214
0.012324
0.0122449
0.0121937
0.0120304
0.0118503
0.0116503
0.0116849
0.0112488
0.0118675
0.0112601
0.0118397
0.0106568
0.0106204
0.00978451
0.00966937
0.00956334
0.00952192
0.0100144
0.0101751
0.0101656
0.00979464
0.0103303
0.0092539
0.00916083
0.00710619
0.00799318
0.00724596
0.00662599
0.00514978
0.00729245
0.00410743
0.00641226
0.00346556
0.00524109
0.000637809
0.00397187
0.00899517
0.00586496
0.0104424
0.00557502
0.0129114
0.0029689
0
0.00256124
0
0.015201
0
0.00312061
0
0
0.00966393
0.352776
0.00466269
0
0
0
0
0.00849313
0
0
0.00902244
0
0
0
0
0.0124528
0.00244094
0.00868667
0.026893
0.0227312
0
0.0402563
0
0
0.0289801
0.0347239
0
0
0.0334772
0.0025223
0
0.000950443
0.0188294
0
0.0104134
0
0
0
0.0164068
0
0.00269855
0
0
0
0
0
0
0
0
0.00341818
0
0
0
4.01852e-05
0.00367978
0
0
0
0
0
0
0
0
0
0
0
0
0
0
0
0
0
0
0
0
0
0
0
0.000802507
0
0
0
0
0
0
0
0
0
0.000198408
0
0
0.000573186
0.00265364
0.00188959
0.00210654
0.000159525
0.00372596
0.00368411
0.00198352
0.00255873
0.00396484
0.00447025
0.00595104
0.0067238
0.00627936
0.00647128
0.00632145
0.00626331
0.00627327
0.00608152
0.00638332
0.00673244
0.0069353
0.00738313
0.00840125
0.0094182
0.0100463
0.0104655
0.0109558
0.0117911
0.0126905
0.0134594
0.0145137
0.0160446
0.0179961
0.0201497
0.0231103
0.0348376
0.0488888
0.0427216
0.0329956
0.0584795
0.0750433
0.116215
0.146904
0.193731
0.260611
0.377718
0.383666
0.46888
0.494842
0.534099
0.469963
0.468168
0.32071
0.344189
0.104037
0.249991
0
0
0
0
0
0
0
0
0
0
0
0
0
0
0
0
0
0
0
0
0
0
0
0
0
0
0
0
0
0
0
0
0
0
0
0
0
0
0
0
0
0
0
0
0
0
0
0
0
0
0
0
0
0
0
0
0.174386
0.497734
0.658943
0.328073
0
0
0
0
0
0
0
0
0
0
0
0
0
0
0
0
0
0
0
0
0
0
0.192762
0.382768
0
0
0
0
0.42213
0.121063
0
0
0
0
0
0.2072
0
0
0
0
0.230422
0.000312349
0.260841
0.232816
0.188704
0.491528
0.330702
0.239396
0
0
0
0
0.0563614
0.346143
0.178534
0.407104
0.0876826
0.200172
0.0585316
0.262248
0.428234
0.742965
0.747804
0.656389
0.574764
0.250029
0
0
0
0
0.0106793
0.0268976
0.102652
0.124618
0.0986969
0.0653093
0.0346338
0.0283888
0.0249099
0.0222594
0.0199613
0.0187328
0.0177558
0.0172116
0.0195891
0.0209654
0.0146793
0.00896759
0.0126025
0.0180149
0.0159647
0.010972
0.0109101
0.0141812
0.0153422
0.0144835
0.0141329
0.0141445
0.0142735
0.0143181
0.0143756
0.0141505
0.0137798
0.0135324
0.013281
0.0131565
0.0130275
0.0131693
0.0129157
0.0131561
0.0129703
0.0129319
0.0129257
0.0127525
0.0125469
0.0122486
0.0122023
0.0117833
0.0124252
0.0118983
0.0124891
0.0113889
0.011305
0.0104318
0.0102499
0.0102749
0.0100432
0.0104533
0.0105488
0.0106254
0.0103693
0.0109082
0.00999627
0.0095809
0.00794847
0.00815519
0.00775371
0.00701034
0.00575193
0.00745209
0.00510888
0.00587995
0.00445333
0.00727684
0
0.00947078
0.00538994
0.00875053
0.00768662
0.0116035
0.0042921
0.010576
0
0.00593539
0
0.0107189
0
0.00366736
0.0011767
0
0
0.0497977
0.0155702
0.000796093
0
0
0
0
0
0.1174
0
0
0
0
0
0.0077257
0.00754926
0
4.43143e-05
0
0.017384
0
0
0
0
0.023886
0.036923
0
0
0
0
0
0
0
0.00837631
0
0.00680913
0
0.010997
0
0
0
0.0318927
0
0
0
0
0
0
0
0
0
0.00224914
0
0
0
0
0
0
0
0
0
0
0
0
0
0
0
0
0
0
0
0
0
0
0
0
0
0.00550637
0
0
0
0
0
0
0
0
0
0
0.0025242
0
0.00134109
0.00102532
0.000989395
0.00282128
0.00289101
0.00257566
0.00236194
0.00313859
0.00264535
0.00411025
0.00490746
0.00652574
0.00739474
0.00700115
0.00718912
0.00715452
0.00711624
0.00723302
0.00706848
0.00742528
0.00785601
0.00814564
0.00874183
0.0102583
0.0116602
0.0126155
0.0134555
0.0144623
0.0157938
0.0174436
0.0193031
0.0218801
0.0258934
0.0312601
0.037718
0.0488838
0.0806363
0.124968
0.10516
0.109711
0.195103
0.226929
0.324401
0.382718
0.43215
0.458372
0.504186
0.488917
0.491489
0.484684
0.485836
0.41357
0.41588
0.360966
0.289905
0.0911806
0.239933
0
0
0
0
0
0
0
0
0
0
0
0
0
0
0
0
0
0
0
0
0
0
0
0
0
0
0
0
0
0
0
0
0
0
0
0
0
0
0
0
0
0
0
0
0
0
0
0
0
0
0
0
0
0
0
0
0.437827
0.407356
0.346695
0
0
0
0
0
0
0
0
0
0
0
0
0
0
0
0
0
0
0
0
0
0
0
0
0.15318
0.656376
0
0
0
0
0.400163
0.185045
0
0
0.219385
0
0.0803346
0
0
0
0
0
0.190089
0.219468
0.230726
0.154602
0.470572
0.316101
0
0
0
0
0
0.0636925
0.326109
0.227788
0.345587
0.106394
0.178327
0.0375769
0.193009
0.436453
0.588259
0.905259
0.819784
0.76636
0.515345
0
0
0
0
0.0485875
0.0602429
0.232608
0.226208
0.20217
0.123387
0.0628294
0.0503733
0.0396011
0.0336506
0.0281127
0.0250954
0.0230638
0.0220297
0.0241935
0.0252046
0.017985
0.0108425
0.0142829
0.0204396
0.0179153
0.0119414
0.0119741
0.0154365
0.0167394
0.0157826
0.0153169
0.0153145
0.0153978
0.0153801
0.0153855
0.0151063
0.0146721
0.0143401
0.014084
0.0139822
0.013819
0.0139486
0.0136581
0.013819
0.0136199
0.0135569
0.0135011
0.0133318
0.0132316
0.0129597
0.0129355
0.0125173
0.0131966
0.0126962
0.0131554
0.0121139
0.0119298
0.010979
0.0106887
0.0105322
0.0103582
0.0109531
0.0111758
0.0112103
0.0110402
0.0116168
0.0106893
0.0102749
0.00848613
0.00874796
0.00818515
0.00767266
0.00599372
0.0082199
0.00485343
0.00720445
0.00615622
0.00553531
0.00272457
0.00495752
0.0039269
0.0062599
0.00513625
0.00839012
0.00779846
0.00664405
0.00667323
0.00508638
0.000183804
0.00921739
0.00499801
0.00893967
0
0.0185824
0
0.019996
0.206428
0.00971104
0
0
0
0
0
0
0.0146836
0
0
0
0
0.024021
0.00938741
0
0
0
0
0.061254
0.0157795
0
0
0
0
0
0
0.00341469
0.0155469
0.0413916
0
0
0
0
0.0549863
0.0158426
0
0
0
0
0
0
0
0
0
0
0
0
0
0
0.0174988
0.0236222
0
0
0
0
0
0
0
0
0
0
0
0
0
0
0
0
0
0
0
0
0
0
0
0
0.00643081
0.00435156
0
0
0
0
0
0
0
0
0
0.00130504
0
0.00105838
0.002257
0
0
0.00286353
0.00479195
0.00271187
0.00229976
0.00383926
0.0043946
0.00568629
0.00734054
0.00824066
0.00801955
0.00830581
0.00842576
0.00849002
0.00860712
0.0085848
0.00918769
0.00979393
0.0104793
0.0117087
0.0133586
0.0158125
0.0178992
0.019855
0.0223037
0.0262384
0.0314073
0.0372755
0.0475361
0.059685
0.0833433
0.108621
0.157395
0.270976
0.356712
0.290132
0.290917
0.374256
0.381141
0.441331
0.450107
0.450338
0.445983
0.487681
0.47622
0.483136
0.489135
0.49783
0.360898
0.399069
0.371879
0.30151
0.106029
0.208479
0
0
0
0
0
0
0
0
0
0
0
0
0
0
0
0
0
0
0
0
0
0
0
0
0
0
0
0
0
0
0
0
0
0
0
0
0
0
0
0
0
0
0
0
0
0
0
0
0
0
0
0
0
0
0
0.00888229
0.341039
0.572669
0.654565
0.495328
0.172713
0
0
0
0
0
0
0
0
0
0
0
0
0
0
0
0
0
0
0
0
0
0
0
0
0.253302
0.555218
0
0
0
0
0
0
0
0.011684
0.420654
0
0
0
0.175043
0
0.211226
0.135372
0.21935
0.19432
0.399946
0.28539
0.265082
0
0
0
0
0
0.29075
0.249412
0.341059
0.10009
0.179078
0.0795518
0.158735
0.472881
0.558671
0.973736
0.938982
0.939175
0.788922
0
0
0
0
0.146914
0.196058
0.529869
0.562027
0.523079
0.300749
0.18372
0.141947
0.103041
0.0799856
0.0604698
0.0479032
0.0386968
0.0341712
0.0353949
0.0360851
0.0239176
0.01429
0.0181752
0.024333
0.0214499
0.0143958
0.0135761
0.0174166
0.0187716
0.0175893
0.0170143
0.0169062
0.0169448
0.0169019
0.0168301
0.0164877
0.0159825
0.0155697
0.015149
0.0148992
0.0146983
0.0147462
0.0144401
0.0146361
0.0144345
0.0144039
0.0144125
0.0142156
0.0140534
0.0136561
0.013513
0.0131018
0.0137309
0.0133641
0.0138757
0.0129274
0.0126824
0.0117039
0.0114587
0.0113084
0.0108096
0.0113295
0.0114735
0.0116512
0.0116009
0.0121356
0.0114201
0.0111199
0.00913675
0.00909649
0.00893826
0.00762654
0.00683334
0.00818119
0.00516826
0.00845653
0.00544983
0.00721244
0.00278885
0.00696846
0.00107077
0.00972528
0.00443754
0.0124453
0.006577
0.011966
0.00256999
0.0109095
0
0.0133012
0
0.0208737
0
0.0317035
0
0.0044991
0.0474513
0.0180722
0.000656995
0
0
0
0.0149089
0
0
0
0
0.0420179
0.0028489
0.0200941
0.00736367
0
0.00545943
0
0
0
0
0.109326
0.0482327
0.00902016
0
0
0.0255905
0
0.0411522
0.00189734
0
0
0.00869007
0
0
0
0
0
0
0
0
0
0
0
0
0
0
0
0
0
0
0
0
0
0
0
0
0
0
0.00197987
0
0
0
0
0
0
0
0
0
0
0
0
0
0
0
0
0.0109987
0.00494415
0
0
0
0
0
0
0
0
0
0
0
0
0.00342703
0.00209991
0.000223399
0.00159757
0.00232723
0.00417542
0.00343629
0.00386692
0.00525256
0.00659266
0.00921472
0.0100135
0.0100046
0.0104846
0.010829
0.0111349
0.0115788
0.0118755
0.0128133
0.0140416
0.0154382
0.0177584
0.0223712
0.0286011
0.0334003
0.0404021
0.0503429
0.0634345
0.0809907
0.107613
0.144765
0.190716
0.232212
0.293644
0.334425
0.446956
0.439732
0.325624
0.302267
0.374748
0.368052
0.426859
0.421116
0.426452
0.427468
0.460129
0.43011
0.470471
0.485926
0.508035
0.380018
0.33749
0.35414
0.298885
0.0973736
0.195424
0
0
0
0
0
0
0
0
0
0
0
0
0
0
0
0
0
0
0
0
0
0
0
0
0
0
0
0
0
0
0
0
0
0
0
0
0
0
0
0
0
0
0
0
0
0
0
0
0
0
0
0
0
0
0
0.213109
0.538244
0.506365
0.542147
0.0810426
0
0
0
0
0
0
0
0
0
0
0
0
0
0
0
0
0
0
0
0
0
0
0
0
0
0
0.165589
0.579431
0
0
0
0.0690228
0
0
0
0
0.390971
0
0
0
0.355009
0.311763
0.19113
0.194597
0.232127
0.408829
0.22505
0.176938
0
0
0
0
0.0514483
0.283458
0.172046
0.302618
0.125985
0.152045
0.113776
0.0838696
0.468953
0.547091
0.973545
0.986
0.988678