/*--------------------------------*- C++ -*----------------------------------*\
| =========                 |                                                 |
| \\      /  F ield         | OpenFOAM: The Open Source CFD Toolbox           |
|  \\    /   O peration     | Version:  v2006                                 |
|   \\  /    A nd           | Website:  www.openfoam.com                      |
|    \\/     M anipulation  |                                                 |
\*---------------------------------------------------------------------------*/
FoamFile
{
    version     2.0;
    format      ascii;
    class       volScalarField;
    location    "150";
    object      nut;
}
// * * * * * * * * * * * * * * * * * * * * * * * * * * * * * * * * * * * * * //

dimensions      [0 2 -1 0 0 0 0];


internalField   nonuniform List<scalar> 
93840
(
2.87331e-08
2.85274e-08
2.87314e-08
2.7874e-08
2.88666e-08
2.85267e-08
3.12746e-08
3.15183e-08
2.87269e-08
2.78464e-08
3.0226e-08
2.87922e-08
2.91718e-08
2.78638e-08
2.67255e-08
2.20293e-08
2.05616e-08
3.56956e-08
1.37963e-07
1.79386e-06
8.4611e-06
2.3402e-05
3.73689e-05
3.76226e-05
3.37436e-05
2.99581e-05
2.42323e-05
2.14293e-05
1.84131e-05
1.60275e-05
1.40771e-05
1.29993e-05
1.29347e-05
1.25232e-05
1.26069e-05
1.24432e-05
1.23376e-05
1.22943e-05
1.21393e-05
1.21502e-05
1.19859e-05
1.2011e-05
1.18583e-05
1.18801e-05
1.17182e-05
1.17303e-05
1.15829e-05
1.15859e-05
1.14573e-05
1.14464e-05
1.13278e-05
1.13148e-05
1.11809e-05
1.1164e-05
1.10839e-05
1.11304e-05
1.10362e-05
1.10272e-05
1.08982e-05
1.08911e-05
1.08213e-05
1.0808e-05
1.07112e-05
1.07487e-05
1.06962e-05
1.07066e-05
1.06624e-05
1.07076e-05
1.06684e-05
1.06982e-05
1.06842e-05
1.07146e-05
1.07109e-05
1.07603e-05
1.07593e-05
1.08115e-05
1.08303e-05
1.08833e-05
1.09232e-05
1.09859e-05
1.10151e-05
1.10768e-05
1.1122e-05
1.12095e-05
1.12778e-05
1.13601e-05
1.14346e-05
1.15191e-05
1.15919e-05
1.16849e-05
1.17964e-05
1.19262e-05
1.20446e-05
1.21811e-05
1.2313e-05
1.24691e-05
1.26174e-05
1.27785e-05
1.29452e-05
1.31346e-05
1.33239e-05
1.35139e-05
1.3712e-05
1.40909e-05
1.44614e-05
1.45531e-05
1.46326e-05
1.49232e-05
1.52391e-05
1.55615e-05
1.58795e-05
1.62045e-05
1.65209e-05
1.69057e-05
1.72512e-05
1.75992e-05
1.79211e-05
1.82955e-05
1.86021e-05
1.8919e-05
1.91502e-05
1.94192e-05
1.95542e-05
1.97603e-05
1.97097e-05
1.96948e-05
1.97802e-05
1.95477e-05
1.96292e-05
1.95239e-05
1.93732e-05
1.92948e-05
1.90877e-05
1.90896e-05
1.89312e-05
1.88783e-05
1.87088e-05
1.86754e-05
1.85598e-05
1.85063e-05
1.84439e-05
1.8359e-05
1.82685e-05
1.81917e-05
1.81426e-05
1.80617e-05
1.80213e-05
1.7937e-05
1.78586e-05
1.77495e-05
1.76677e-05
1.75594e-05
1.74568e-05
1.73279e-05
1.71866e-05
1.70196e-05
1.68511e-05
1.66689e-05
1.64601e-05
1.62568e-05
1.60544e-05
1.58433e-05
1.55578e-05
1.52739e-05
1.49607e-05
1.46002e-05
1.41494e-05
1.36233e-05
1.30078e-05
1.22721e-05
1.13409e-05
9.65939e-06
5.96616e-06
4.18355e-07
1.0731e-07
2.30268e-06
2.10305e-06
2.57086e-07
9.70987e-08
2.07121e-07
5.12353e-10
3.45475e-07
2.77622e-07
8.28368e-07
1.73223e-06
3.10526e-06
1.86809e-06
7.47128e-08
8.9249e-06
1.78798e-05
6.11863e-06
6.1847e-06
1.85333e-05
2.5483e-05
2.71978e-05
2.83954e-05
2.96568e-05
3.07358e-05
3.14251e-05
3.16037e-05
3.16768e-05
3.15556e-05
3.15478e-05
3.14052e-05
3.13483e-05
3.11753e-05
3.10856e-05
3.08934e-05
3.08061e-05
3.05927e-05
3.05118e-05
3.03338e-05
3.02512e-05
3.00865e-05
3.00084e-05
2.97822e-05
2.96624e-05
2.94803e-05
2.93628e-05
2.91717e-05
2.91711e-05
2.90127e-05
2.88736e-05
2.86695e-05
2.84998e-05
2.8279e-05
2.80882e-05
2.79077e-05
2.7692e-05
2.74837e-05
2.72964e-05
2.73275e-05
2.71451e-05
2.71889e-05
2.69623e-05
2.68938e-05
2.66191e-05
2.65756e-05
2.62686e-05
2.61162e-05
2.59403e-05
2.57326e-05
2.55769e-05
2.5089e-05
2.46458e-05
2.28957e-05
1.93735e-05
1.76385e-05
1.73985e-05
1.8114e-05
1.89892e-05
1.9238e-05
1.95601e-05
1.96067e-05
1.96029e-05
1.93354e-05
1.87843e-05
1.7976e-05
1.73519e-05
1.70141e-05
1.67298e-05
1.64567e-05
1.62345e-05
1.60168e-05
1.57967e-05
1.55477e-05
1.53356e-05
1.50993e-05
1.47247e-05
1.44167e-05
1.44584e-05
1.44902e-05
1.42367e-05
1.38735e-05
1.37374e-05
1.3692e-05
1.35182e-05
1.32459e-05
1.3017e-05
1.28315e-05
1.26424e-05
1.24563e-05
1.22625e-05
1.20738e-05
1.18717e-05
1.16807e-05
1.14984e-05
1.13233e-05
1.11437e-05
1.09622e-05
1.07798e-05
1.05963e-05
1.04109e-05
1.02259e-05
1.00427e-05
9.85401e-06
9.67314e-06
9.48505e-06
9.30671e-06
9.12111e-06
8.95645e-06
8.7776e-06
8.61684e-06
8.42692e-06
8.26052e-06
8.07185e-06
7.92961e-06
7.75463e-06
7.62643e-06
7.45175e-06
7.32919e-06
7.14457e-06
7.03604e-06
6.85196e-06
6.76326e-06
6.56405e-06
6.48043e-06
6.23218e-06
6.12088e-06
5.80418e-06
5.60265e-06
5.01761e-06
4.34673e-06
3.61785e-06
2.53793e-06
7.34669e-07
4.98741e-07
9.63516e-09
2.81295e-07
4.07244e-09
6.67623e-07
8.21268e-08
1.74714e-06
5.63706e-07
3.28803e-06
9.10154e-07
5.13216e-06
7.62291e-06
1.21895e-05
1.6556e-05
2.02406e-05
2.29027e-05
2.69276e-05
3.05705e-05
3.55784e-05
3.80271e-05
2.65097e-05
1.04523e-05
2.44469e-06
1.96395e-07
4.12409e-08
2.85155e-08
2.76073e-08
2.87316e-08
2.8188e-08
2.90581e-08
2.87742e-08
3.01069e-08
2.78478e-08
2.8605e-08
3.15443e-08
3.1174e-08
2.86086e-08
2.88568e-08
2.78725e-08
2.85794e-08
2.84331e-08
2.87249e-08
2.87477e-08
2.84518e-08
2.8618e-08
2.78972e-08
2.88159e-08
2.85735e-08
3.12427e-08
3.15899e-08
2.85239e-08
2.78405e-08
3.00354e-08
2.87527e-08
2.9211e-08
2.89419e-08
3.22711e-08
3.44469e-08
2.79627e-08
2.79392e-08
9.12459e-08
1.13935e-06
6.38967e-06
1.97078e-05
3.55836e-05
3.89836e-05
3.70551e-05
3.54665e-05
3.04988e-05
2.69703e-05
2.35179e-05
2.01612e-05
1.83623e-05
1.72064e-05
1.63729e-05
1.63034e-05
1.68671e-05
1.61088e-05
1.68791e-05
1.61272e-05
1.67508e-05
1.62424e-05
1.66819e-05
1.62161e-05
1.67207e-05
1.62354e-05
1.67437e-05
1.61843e-05
1.68357e-05
1.61916e-05
1.6812e-05
1.6301e-05
1.6749e-05
1.64071e-05
1.6738e-05
1.6419e-05
1.67485e-05
1.64666e-05
1.68267e-05
1.66115e-05
1.68496e-05
1.66348e-05
1.68764e-05
1.67275e-05
1.69049e-05
1.67754e-05
1.69696e-05
1.68724e-05
1.70207e-05
1.69706e-05
1.71136e-05
1.70678e-05
1.71945e-05
1.71776e-05
1.72793e-05
1.72874e-05
1.73895e-05
1.7404e-05
1.75014e-05
1.75277e-05
1.76228e-05
1.76752e-05
1.77667e-05
1.78159e-05
1.78994e-05
1.79618e-05
1.806e-05
1.81338e-05
1.82208e-05
1.83082e-05
1.8393e-05
1.8462e-05
1.85364e-05
1.86194e-05
1.87065e-05
1.87875e-05
1.88616e-05
1.89405e-05
1.90064e-05
1.90691e-05
1.91238e-05
1.91772e-05
1.92079e-05
1.92463e-05
1.92372e-05
1.92668e-05
1.93548e-05
1.93993e-05
1.9377e-05
1.93656e-05
1.93746e-05
1.93952e-05
1.93865e-05
1.93838e-05
1.93597e-05
1.9341e-05
1.93074e-05
1.92655e-05
1.92078e-05
1.91485e-05
1.90563e-05
1.89863e-05
1.88505e-05
1.87482e-05
1.85793e-05
1.84414e-05
1.82358e-05
1.81e-05
1.78758e-05
1.77095e-05
1.75213e-05
1.7306e-05
1.71251e-05
1.6926e-05
1.67367e-05
1.65568e-05
1.63449e-05
1.61727e-05
1.59636e-05
1.57995e-05
1.55863e-05
1.54179e-05
1.51975e-05
1.50182e-05
1.48054e-05
1.46233e-05
1.43947e-05
1.41887e-05
1.39455e-05
1.37176e-05
1.34605e-05
1.32214e-05
1.29473e-05
1.26712e-05
1.23608e-05
1.20287e-05
1.16496e-05
1.12367e-05
1.0775e-05
1.02746e-05
9.7476e-06
9.19888e-06
8.49357e-06
7.54978e-06
6.4773e-06
5.66782e-06
5.36727e-06
5.12027e-06
4.18133e-06
2.68065e-06
1.57707e-06
1.44382e-06
1.52588e-06
8.11124e-07
8.6029e-09
4.63787e-10
5.30868e-08
1.43088e-08
1.23979e-07
1.16708e-09
5.92947e-08
7.54586e-08
1.04776e-07
3.63356e-08
1.04425e-08
4.0713e-09
1.98398e-11
2.27864e-08
2.29232e-08
8.61409e-12
3.30173e-07
5.98949e-07
9.80358e-08
1.10918e-06
2.52176e-06
5.67738e-06
5.38577e-06
3.45182e-06
4.58639e-06
8.02325e-06
1.08924e-05
1.24518e-05
1.38736e-05
1.54186e-05
1.69151e-05
1.79957e-05
1.89482e-05
1.98076e-05
2.06448e-05
2.12226e-05
2.17739e-05
2.22003e-05
2.26357e-05
2.29429e-05
2.32897e-05
2.35357e-05
2.37773e-05
2.39466e-05
2.41632e-05
2.42967e-05
2.4486e-05
2.45897e-05
2.4766e-05
2.4859e-05
2.50214e-05
2.50968e-05
2.52452e-05
2.53293e-05
2.54571e-05
2.55551e-05
2.56544e-05
2.57992e-05
2.58264e-05
2.59797e-05
2.59894e-05
2.61019e-05
2.62618e-05
2.62439e-05
2.63996e-05
2.68372e-05
2.63626e-05
2.65636e-05
2.66158e-05
2.74902e-05
2.72483e-05
2.75673e-05
2.73423e-05
2.64748e-05
2.70536e-05
2.71459e-05
2.70677e-05
2.68216e-05
2.65648e-05
2.63753e-05
2.61047e-05
2.58721e-05
2.58109e-05
2.5683e-05
2.54964e-05
2.53707e-05
2.5503e-05
2.55618e-05
2.54368e-05
2.52527e-05
2.52823e-05
2.54209e-05
2.54799e-05
2.53064e-05
2.50284e-05
2.4751e-05
2.4673e-05
2.49352e-05
2.52954e-05
2.54229e-05
2.53633e-05
2.53416e-05
2.5302e-05
2.51005e-05
2.47764e-05
2.44914e-05
2.42661e-05
2.40513e-05
2.38395e-05
2.36411e-05
2.34588e-05
2.3286e-05
2.31192e-05
2.29845e-05
2.28395e-05
2.27133e-05
2.25596e-05
2.24273e-05
2.22597e-05
2.21207e-05
2.19213e-05
2.17862e-05
2.15625e-05
2.14265e-05
2.11799e-05
2.10683e-05
2.07981e-05
2.07286e-05
2.04446e-05
2.04141e-05
2.00897e-05
2.00913e-05
1.97477e-05
1.98185e-05
1.94606e-05
1.95943e-05
1.91893e-05
1.93776e-05
1.89214e-05
1.91613e-05
1.86664e-05
1.89508e-05
1.83927e-05
1.86578e-05
1.8015e-05
1.81644e-05
1.73951e-05
1.72268e-05
1.60859e-05
1.48656e-05
1.26695e-05
1.05493e-05
8.35625e-06
6.45665e-06
4.98327e-06
4.01731e-06
3.54559e-06
3.60077e-06
2.23483e-06
3.17886e-06
2.96738e-06
3.84835e-06
2.724e-06
2.66909e-06
3.15797e-06
3.7169e-06
7.39985e-06
1.39203e-05
1.8959e-05
2.40421e-05
2.78978e-05
2.93974e-05
3.30526e-05
3.76962e-05
2.9628e-05
1.29864e-05
3.3117e-06
3.37714e-07
4.37731e-08
3.21478e-08
2.70078e-08
2.81751e-08
2.83993e-08
2.8962e-08
2.86255e-08
3.00511e-08
2.77934e-08
2.88813e-08
3.14946e-08
3.11531e-08
2.85604e-08
2.89425e-08
2.78433e-08
2.87614e-08
2.84983e-08
2.87241e-08
2.87514e-08
2.85027e-08
2.87499e-08
2.79082e-08
2.88461e-08
2.84783e-08
3.12628e-08
3.15001e-08
2.86134e-08
2.77812e-08
3.02036e-08
2.87544e-08
2.93522e-08
2.79054e-08
2.88087e-08
3.42626e-08
4.28076e-08
3.48789e-08
5.32344e-08
6.42968e-07
4.57408e-06
1.56914e-05
3.23364e-05
3.87324e-05
3.81637e-05
3.85131e-05
3.61592e-05
3.40907e-05
3.17352e-05
2.9463e-05
2.80659e-05
2.73569e-05
2.59632e-05
2.66471e-05
2.59274e-05
2.63215e-05
2.59986e-05
2.61698e-05
2.60982e-05
2.61167e-05
2.6191e-05
2.61045e-05
2.62982e-05
2.61612e-05
2.63663e-05
2.62314e-05
2.64671e-05
2.62897e-05
2.65558e-05
2.63847e-05
2.66364e-05
2.64861e-05
2.67061e-05
2.65562e-05
2.67969e-05
2.66925e-05
2.69913e-05
2.68694e-05
2.70647e-05
2.69288e-05
2.71474e-05
2.70395e-05
2.72099e-05
2.71253e-05
2.73262e-05
2.72465e-05
2.74148e-05
2.73812e-05
2.75361e-05
2.74911e-05
2.76294e-05
2.75992e-05
2.77084e-05
2.77034e-05
2.78048e-05
2.78002e-05
2.78912e-05
2.78939e-05
2.79785e-05
2.80059e-05
2.80668e-05
2.80741e-05
2.81187e-05
2.81392e-05
2.8196e-05
2.82118e-05
2.8242e-05
2.82606e-05
2.82598e-05
2.82267e-05
2.81928e-05
2.8169e-05
2.81394e-05
2.80874e-05
2.80159e-05
2.79404e-05
2.78292e-05
2.76972e-05
2.75499e-05
2.73782e-05
2.71533e-05
2.69445e-05
2.6652e-05
2.642e-05
2.62896e-05
2.60751e-05
2.5748e-05
2.54103e-05
2.51002e-05
2.48043e-05
2.44529e-05
2.41103e-05
2.3731e-05
2.33517e-05
2.29701e-05
2.25583e-05
2.21584e-05
2.17379e-05
2.13187e-05
2.09322e-05
2.04907e-05
2.01044e-05
1.96896e-05
1.92893e-05
1.89132e-05
1.85389e-05
1.81208e-05
1.77948e-05
1.73741e-05
1.70224e-05
1.66442e-05
1.62837e-05
1.59065e-05
1.55366e-05
1.51368e-05
1.47795e-05
1.43673e-05
1.39933e-05
1.35618e-05
1.31716e-05
1.27248e-05
1.23269e-05
1.18769e-05
1.14487e-05
1.09449e-05
1.04616e-05
9.90923e-06
9.37475e-06
8.78108e-06
8.21355e-06
7.5752e-06
6.93921e-06
6.21793e-06
5.46709e-06
4.67877e-06
3.95797e-06
3.24138e-06
2.51472e-06
1.89492e-06
1.62252e-06
1.31142e-06
5.74045e-07
4.64131e-08
3.7725e-08
8.59978e-08
3.50339e-08
1.48484e-08
3.58124e-08
4.37409e-08
3.76172e-08
1.3642e-08
2.12079e-08
1.03312e-07
1.23397e-07
4.65217e-08
4.48249e-08
1.74807e-08
1.27215e-07
7.65605e-08
2.44864e-08
4.57132e-08
1.41741e-07
8.44734e-08
8.07095e-08
1.34077e-07
7.40109e-08
7.1657e-08
4.91353e-08
3.26456e-08
2.51986e-08
6.5251e-08
4.33521e-08
5.4711e-08
4.04371e-07
2.89725e-07
1.41443e-07
9.09199e-09
8.81189e-07
1.5602e-06
7.80023e-07
1.3705e-06
2.79205e-06
3.43051e-06
3.72697e-06
4.57342e-06
5.70972e-06
6.74187e-06
7.58387e-06
8.52605e-06
9.54656e-06
1.07807e-05
1.20341e-05
1.33563e-05
1.45645e-05
1.5644e-05
1.66064e-05
1.75247e-05
1.8314e-05
1.90721e-05
1.97369e-05
2.04376e-05
2.09678e-05
2.15411e-05
2.20156e-05
2.25432e-05
2.30369e-05
2.35481e-05
2.41044e-05
2.45463e-05
2.51633e-05
2.55298e-05
2.6171e-05
2.64843e-05
2.69236e-05
2.74952e-05
2.76992e-05
2.8235e-05
2.91822e-05
2.87446e-05
2.96573e-05
3.0535e-05
3.21303e-05
3.25267e-05
3.2916e-05
3.3115e-05
3.21816e-05
3.36452e-05
3.44111e-05
3.48514e-05
3.503e-05
3.50819e-05
3.52276e-05
3.50074e-05
3.47382e-05
3.48088e-05
3.48017e-05
3.46155e-05
3.4553e-05
3.51097e-05
3.56611e-05
3.58232e-05
3.57966e-05
3.6208e-05
3.69764e-05
3.76255e-05
3.77283e-05
3.74712e-05
3.72074e-05
3.73584e-05
3.82587e-05
3.96041e-05
4.06064e-05
4.10499e-05
4.13487e-05
4.16635e-05
4.16813e-05
4.13301e-05
4.09288e-05
4.06546e-05
4.04454e-05
4.02463e-05
4.00757e-05
3.99275e-05
3.98098e-05
3.96915e-05
3.96393e-05
3.95819e-05
3.95587e-05
3.94832e-05
3.94341e-05
3.93083e-05
3.92128e-05
3.90045e-05
3.88679e-05
3.85949e-05
3.84292e-05
3.81052e-05
3.79428e-05
3.75816e-05
3.746e-05
3.70936e-05
3.70227e-05
3.66191e-05
3.65607e-05
3.61335e-05
3.6147e-05
3.57564e-05
3.58518e-05
3.54597e-05
3.55965e-05
3.51689e-05
3.5327e-05
3.48655e-05
3.50201e-05
3.44673e-05
3.453e-05
3.37604e-05
3.35787e-05
3.2421e-05
3.17671e-05
2.99937e-05
2.85929e-05
2.5894e-05
2.35044e-05
1.99556e-05
1.70708e-05
1.33277e-05
1.10813e-05
8.60883e-06
7.99603e-06
6.44981e-06
6.17018e-06
5.17187e-06
6.02082e-06
5.06964e-06
4.69357e-06
4.439e-06
4.53005e-06
3.98676e-06
8.4094e-06
1.35698e-05
2.11894e-05
2.90311e-05
3.17974e-05
3.24117e-05
3.70485e-05
3.21131e-05
1.56294e-05
4.33877e-06
6.0996e-07
5.33833e-08
3.58096e-08
3.03656e-08
2.84442e-08
2.82642e-08
2.93718e-08
2.86857e-08
3.0006e-08
2.78212e-08
2.87012e-08
3.15452e-08
3.12109e-08
2.86238e-08
2.88664e-08
2.79033e-08
2.86342e-08
2.84691e-08
2.875e-08
2.86641e-08
2.84018e-08
2.85828e-08
2.78502e-08
2.87829e-08
2.85819e-08
3.12232e-08
3.15734e-08
2.8446e-08
2.77324e-08
3.01064e-08
2.87146e-08
2.95282e-08
2.96243e-08
3.30735e-08
3.98064e-08
4.52071e-08
3.21173e-08
3.27587e-08
3.26182e-07
3.24723e-06
1.23094e-05
2.86424e-05
3.77621e-05
3.8454e-05
3.957e-05
3.86322e-05
3.74128e-05
3.59902e-05
3.4759e-05
3.37621e-05
3.33003e-05
3.29045e-05
3.26623e-05
3.26023e-05
3.2482e-05
3.25228e-05
3.24703e-05
3.25635e-05
3.25191e-05
3.26525e-05
3.25927e-05
3.27735e-05
3.27017e-05
3.28849e-05
3.28315e-05
3.30158e-05
3.2952e-05
3.31512e-05
3.30904e-05
3.32848e-05
3.32274e-05
3.34118e-05
3.33614e-05
3.3561e-05
3.35344e-05
3.37713e-05
3.3724e-05
3.38941e-05
3.38306e-05
3.40063e-05
3.39516e-05
3.41081e-05
3.40638e-05
3.42369e-05
3.41916e-05
3.43435e-05
3.43224e-05
3.4458e-05
3.4422e-05
3.45361e-05
3.4501e-05
3.4589e-05
3.45668e-05
3.46429e-05
3.46176e-05
3.46762e-05
3.46515e-05
3.46966e-05
3.46843e-05
3.4697e-05
3.46592e-05
3.46502e-05
3.46161e-05
3.46056e-05
3.45522e-05
3.45057e-05
3.4443e-05
3.43477e-05
3.4213e-05
3.40674e-05
3.39272e-05
3.37742e-05
3.3586e-05
3.33672e-05
3.31351e-05
3.2845e-05
3.25325e-05
3.21949e-05
3.1811e-05
3.13593e-05
3.09404e-05
3.04244e-05
2.99562e-05
2.95567e-05
2.90851e-05
2.85419e-05
2.79476e-05
2.73688e-05
2.68072e-05
2.61761e-05
2.55625e-05
2.49131e-05
2.42586e-05
2.3612e-05
2.2925e-05
2.22886e-05
2.16069e-05
2.09655e-05
2.03549e-05
1.9707e-05
1.9119e-05
1.85316e-05
1.7922e-05
1.74134e-05
1.68443e-05
1.62911e-05
1.57893e-05
1.52313e-05
1.47081e-05
1.41696e-05
1.36624e-05
1.31033e-05
1.25875e-05
1.19944e-05
1.14806e-05
1.08696e-05
1.03129e-05
9.65502e-06
9.03836e-06
8.32825e-06
7.66164e-06
6.92149e-06
6.19861e-06
5.39874e-06
4.66207e-06
3.91525e-06
3.28596e-06
2.66554e-06
2.15905e-06
1.63233e-06
1.22134e-06
7.93981e-07
4.61057e-07
1.80932e-07
1.04147e-07
7.2827e-08
5.04932e-08
2.0357e-08
3.81709e-08
4.41627e-08
3.56187e-08
2.81083e-08
5.66659e-08
4.36373e-08
4.05429e-08
3.51133e-08
3.02957e-08
2.2375e-08
4.34502e-08
4.60398e-08
4.8313e-08
2.83642e-08
2.51916e-08
4.73688e-08
7.63607e-08
1.00896e-07
3.85891e-08
5.97539e-08
9.91722e-08
4.66e-08
4.52592e-08
1.45806e-08
5.07942e-08
7.51966e-08
4.78087e-08
3.92198e-08
5.17543e-08
4.90684e-08
2.29062e-08
2.15077e-08
2.05001e-08
7.82632e-09
1.56746e-08
2.82791e-08
9.35064e-09
5.49542e-09
2.12273e-08
3.34503e-08
7.66354e-09
8.49064e-09
6.05833e-08
6.66225e-08
4.62931e-08
1.49292e-07
2.50278e-07
3.46482e-07
5.38097e-07
8.4257e-07
1.12578e-06
1.64147e-06
2.33329e-06
3.05753e-06
3.8857e-06
4.7842e-06
5.8239e-06
6.96321e-06
8.14834e-06
9.42301e-06
1.06972e-05
1.20896e-05
1.32297e-05
1.435e-05
1.53193e-05
1.62782e-05
1.72041e-05
1.80924e-05
1.90909e-05
1.98601e-05
2.0906e-05
2.15777e-05
2.26632e-05
2.33195e-05
2.40635e-05
2.50006e-05
2.55201e-05
2.63365e-05
2.74683e-05
2.74367e-05
2.91268e-05
3.0745e-05
3.23877e-05
3.34591e-05
3.35544e-05
3.42978e-05
3.44459e-05
3.57026e-05
3.64774e-05
3.7169e-05
3.76593e-05
3.80926e-05
3.87188e-05
3.87489e-05
3.85893e-05
3.88607e-05
3.91333e-05
3.90855e-05
3.9062e-05
3.98422e-05
4.07599e-05
4.11892e-05
4.12843e-05
4.1924e-05
4.31668e-05
4.43553e-05
4.4803e-05
4.46199e-05
4.43727e-05
4.47069e-05
4.60083e-05
4.7974e-05
4.97152e-05
5.08048e-05
5.15247e-05
5.21173e-05
5.2332e-05
5.20865e-05
5.17131e-05
5.14443e-05
5.12621e-05
5.11072e-05
5.10002e-05
5.09201e-05
5.08901e-05
5.08591e-05
5.09099e-05
5.09555e-05
5.10531e-05
5.1088e-05
5.11517e-05
5.11169e-05
5.11043e-05
5.09533e-05
5.08573e-05
5.06042e-05
5.0442e-05
5.01142e-05
4.99277e-05
4.95516e-05
4.93908e-05
4.90137e-05
4.88946e-05
4.84946e-05
4.83811e-05
4.79688e-05
4.79161e-05
4.75605e-05
4.75883e-05
4.72672e-05
4.73354e-05
4.70103e-05
4.70863e-05
4.67437e-05
4.67835e-05
4.63449e-05
4.6243e-05
4.55608e-05
4.51505e-05
4.4042e-05
4.31219e-05
4.14021e-05
3.98279e-05
3.73707e-05
3.50338e-05
3.18564e-05
2.89944e-05
2.53017e-05
2.22018e-05
1.8404e-05
1.58077e-05
1.28877e-05
1.12734e-05
9.0983e-06
8.90976e-06
7.93014e-06
7.93353e-06
7.02746e-06
7.67423e-06
6.61982e-06
5.13291e-06
7.6946e-06
1.47945e-05
2.76145e-05
3.49028e-05
3.45161e-05
3.74863e-05
3.4253e-05
1.81048e-05
5.40799e-06
9.26226e-07
6.23662e-08
3.56596e-08
3.00892e-08
2.71331e-08
2.70786e-08
2.88819e-08
2.85136e-08
3.00054e-08
2.78654e-08
2.87769e-08
3.14954e-08
3.11946e-08
2.85269e-08
2.89107e-08
2.78563e-08
2.86928e-08
2.84874e-08
2.87185e-08
2.87955e-08
2.8528e-08
2.87116e-08
2.79368e-08
2.88976e-08
2.85491e-08
3.13061e-08
3.16305e-08
2.86734e-08
2.78199e-08
3.01565e-08
2.86738e-08
2.89705e-08
2.67549e-08
2.36161e-08
1.92169e-08
2.18336e-08
2.87283e-08
3.18175e-08
1.56792e-07
2.08475e-06
9.11287e-06
2.42712e-05
3.57992e-05
3.82102e-05
3.99138e-05
4.0268e-05
3.97205e-05
3.9208e-05
3.85085e-05
3.80316e-05
3.77491e-05
3.74451e-05
3.7368e-05
3.72551e-05
3.72414e-05
3.72433e-05
3.72633e-05
3.73261e-05
3.73589e-05
3.74545e-05
3.74869e-05
3.76126e-05
3.76377e-05
3.77776e-05
3.78059e-05
3.79539e-05
3.79738e-05
3.81361e-05
3.81517e-05
3.83158e-05
3.83282e-05
3.84915e-05
3.85095e-05
3.86823e-05
3.87111e-05
3.89038e-05
3.89147e-05
3.9063e-05
3.90559e-05
3.91987e-05
3.91896e-05
3.93243e-05
3.93141e-05
3.94527e-05
3.94347e-05
3.95563e-05
3.95428e-05
3.96446e-05
3.961e-05
3.9686e-05
3.96398e-05
3.969e-05
3.96445e-05
3.96793e-05
3.96238e-05
3.96332e-05
3.95694e-05
3.9556e-05
3.94913e-05
3.94389e-05
3.93445e-05
3.92637e-05
3.91576e-05
3.90581e-05
3.89194e-05
3.87761e-05
3.86151e-05
3.84052e-05
3.81525e-05
3.78766e-05
3.76022e-05
3.73043e-05
3.69591e-05
3.65727e-05
3.61632e-05
3.56746e-05
3.51689e-05
3.46241e-05
3.40121e-05
3.33295e-05
3.26967e-05
3.19506e-05
3.12217e-05
3.05242e-05
2.98013e-05
2.90614e-05
2.82148e-05
2.73806e-05
2.65612e-05
2.56692e-05
2.48065e-05
2.39174e-05
2.30156e-05
2.21382e-05
2.12143e-05
2.03844e-05
1.94742e-05
1.86572e-05
1.78489e-05
1.70333e-05
1.62591e-05
1.5526e-05
1.47061e-05
1.40827e-05
1.33114e-05
1.26394e-05
1.19478e-05
1.12731e-05
1.05465e-05
9.8498e-06
9.15591e-06
8.37386e-06
7.65332e-06
6.79548e-06
6.07972e-06
5.22486e-06
4.52542e-06
3.7176e-06
3.09168e-06
2.40772e-06
1.9318e-06
1.40675e-06
1.03065e-06
5.76451e-07
3.68774e-07
1.66802e-07
1.28203e-07
6.41886e-08
7.83106e-08
4.72456e-08
5.45789e-08
3.85795e-08
5.31858e-08
3.39054e-08
4.74859e-08
3.31983e-08
4.51966e-08
3.7247e-08
4.7278e-08
3.34674e-08
4.94335e-08
3.63322e-08
4.17243e-08
3.23391e-08
5.68701e-08
5.24772e-08
6.93222e-08
5.35938e-08
5.39593e-08
4.75198e-08
5.75039e-08
6.05796e-08
5.89991e-08
4.85187e-08
2.01704e-08
3.23552e-08
2.44106e-08
4.72175e-08
3.18445e-08
5.10646e-08
8.60562e-08
8.22795e-08
9.49778e-08
7.99493e-08
3.08139e-08
2.60377e-08
2.22978e-08
2.30016e-08
3.16095e-08
3.5745e-08
3.18803e-08
2.1111e-08
2.05664e-08
2.66967e-08
2.01056e-08
2.20928e-08
2.17929e-08
2.86365e-08
2.77178e-08
2.80819e-08
3.59699e-08
3.94494e-08
3.48592e-08
4.8151e-08
4.53845e-08
3.39875e-08
3.89839e-08
2.42978e-08
2.12836e-08
1.62084e-08
3.50658e-08
4.55627e-08
1.22496e-07
1.91364e-07
3.54593e-07
6.58896e-07
9.83957e-07
1.51596e-06
2.14868e-06
3.06718e-06
3.85591e-06
4.78711e-06
5.69866e-06
6.69369e-06
7.89067e-06
9.11951e-06
1.06734e-05
1.1905e-05
1.34746e-05
1.45446e-05
1.60834e-05
1.71637e-05
1.81744e-05
1.9479e-05
2.03793e-05
2.14838e-05
2.25913e-05
2.31493e-05
2.58312e-05
2.79989e-05
2.95469e-05
3.09216e-05
3.08155e-05
3.20763e-05
3.33116e-05
3.44937e-05
3.51034e-05
3.60335e-05
3.68535e-05
3.76429e-05
3.8796e-05
3.91844e-05
3.92156e-05
3.97144e-05
4.04054e-05
4.06091e-05
4.06641e-05
4.15988e-05
4.28741e-05
4.36208e-05
4.3852e-05
4.46351e-05
4.62762e-05
4.80192e-05
4.89171e-05
4.88853e-05
4.86479e-05
4.9107e-05
5.07134e-05
5.31715e-05
5.56137e-05
5.74464e-05
5.87148e-05
5.96418e-05
6.00861e-05
6.0014e-05
5.97457e-05
5.95324e-05
5.94069e-05
5.93215e-05
5.93041e-05
5.93211e-05
5.94048e-05
5.94916e-05
5.96674e-05
5.98391e-05
6.00764e-05
6.02481e-05
6.04513e-05
6.05444e-05
6.06492e-05
6.05995e-05
6.05815e-05
6.03936e-05
6.02687e-05
5.99767e-05
5.97972e-05
5.94414e-05
5.92651e-05
5.8902e-05
5.87576e-05
5.83814e-05
5.82397e-05
5.78602e-05
5.77705e-05
5.74537e-05
5.74416e-05
5.7179e-05
5.72156e-05
5.69739e-05
5.7022e-05
5.6777e-05
5.6786e-05
5.64482e-05
5.63029e-05
5.5722e-05
5.52609e-05
5.42678e-05
5.33225e-05
5.17659e-05
5.02445e-05
4.80691e-05
4.59374e-05
4.31518e-05
4.05434e-05
3.72732e-05
3.44239e-05
3.07751e-05
2.78898e-05
2.41933e-05
2.14069e-05
1.78795e-05
1.53459e-05
1.30681e-05
1.14332e-05
1.03628e-05
9.63456e-06
9.52725e-06
8.48281e-06
5.54354e-06
8.58239e-06
2.24709e-05
3.52893e-05
3.84533e-05
3.99237e-05
3.702e-05
2.07788e-05
6.63818e-06
1.34284e-06
8.22381e-08
3.51038e-08
3.79554e-08
3.25458e-08
2.88443e-08
2.91635e-08
2.8802e-08
2.99802e-08
2.78096e-08
2.85068e-08
3.15771e-08
3.13185e-08
2.8513e-08
2.88847e-08
2.79244e-08
2.85739e-08
2.84706e-08
2.87609e-08
2.86531e-08
2.83658e-08
2.85506e-08
2.78639e-08
2.87764e-08
2.85108e-08
3.10809e-08
3.15045e-08
2.84832e-08
2.77371e-08
3.02088e-08
2.87394e-08
2.92164e-08
2.88406e-08
2.83165e-08
2.0608e-08
1.72378e-08
2.75647e-08
3.537e-08
7.03117e-08
1.18565e-06
6.26555e-06
1.93189e-05
3.25854e-05
3.70393e-05
3.91429e-05
4.07567e-05
4.07716e-05
4.09227e-05
4.07163e-05
4.05918e-05
4.05044e-05
4.04073e-05
4.04012e-05
4.03794e-05
4.04126e-05
4.0453e-05
4.05098e-05
4.05933e-05
4.06623e-05
4.07706e-05
4.08444e-05
4.09715e-05
4.10454e-05
4.11835e-05
4.12588e-05
4.14034e-05
4.14756e-05
4.16285e-05
4.16963e-05
4.18504e-05
4.19148e-05
4.20698e-05
4.21357e-05
4.22935e-05
4.23617e-05
4.25269e-05
4.25803e-05
4.27149e-05
4.27494e-05
4.28704e-05
4.28957e-05
4.30083e-05
4.30215e-05
4.31267e-05
4.31254e-05
4.32104e-05
4.31971e-05
4.32572e-05
4.32154e-05
4.32443e-05
4.31814e-05
4.31828e-05
4.31083e-05
4.30899e-05
4.29958e-05
4.29431e-05
4.28306e-05
4.27446e-05
4.26186e-05
4.24882e-05
4.23276e-05
4.216e-05
4.19687e-05
4.17648e-05
4.15288e-05
4.12748e-05
4.10016e-05
4.06607e-05
4.02784e-05
3.98587e-05
3.94383e-05
3.89785e-05
3.84613e-05
3.78929e-05
3.72915e-05
3.65933e-05
3.58876e-05
3.51247e-05
3.4277e-05
3.33663e-05
3.25167e-05
3.15332e-05
3.0529e-05
2.95335e-05
2.85809e-05
2.766e-05
2.65724e-05
2.55075e-05
2.44467e-05
2.33218e-05
2.22393e-05
2.11433e-05
2.0025e-05
1.89542e-05
1.78301e-05
1.68414e-05
1.57257e-05
1.47692e-05
1.37781e-05
1.28235e-05
1.18685e-05
1.09967e-05
9.94471e-06
9.19109e-06
8.15501e-06
7.3215e-06
6.37188e-06
5.56419e-06
4.64274e-06
3.90832e-06
3.18363e-06
2.49596e-06
1.95276e-06
1.33365e-06
1.00079e-06
4.93928e-07
3.88373e-07
1.35422e-07
1.46208e-07
5.2903e-08
7.15988e-08
2.97955e-08
5.09929e-08
2.2323e-08
4.78208e-08
2.52413e-08
5.11648e-08
2.41253e-08
4.25324e-08
2.1794e-08
3.81803e-08
2.325e-08
3.8053e-08
2.61366e-08
4.30054e-08
3.30653e-08
4.44055e-08
3.48426e-08
4.1498e-08
3.47405e-08
4.0349e-08
3.58442e-08
4.7687e-08
4.04154e-08
3.86405e-08
2.79762e-08
2.97334e-08
3.26551e-08
3.45436e-08
4.06683e-08
2.96156e-08
4.40981e-08
3.0571e-08
7.08077e-08
6.4798e-08
1.17896e-07
8.79581e-08
5.46241e-08
6.75982e-08
3.99851e-08
6.87221e-08
2.65417e-08
6.33425e-08
2.29987e-08
2.34418e-08
9.39062e-08
7.09811e-08
6.98151e-08
4.77199e-08
5.62709e-08
4.3076e-08
4.67425e-08
3.9288e-08
4.45708e-08
3.73544e-08
3.92178e-08
3.41712e-08
3.87847e-08
3.41122e-08
4.03346e-08
2.84322e-08
3.13205e-08
1.68585e-08
1.74929e-08
1.00262e-08
9.12393e-09
8.8813e-09
8.56413e-09
1.20178e-08
1.30238e-08
1.36958e-08
8.21881e-09
8.6533e-09
7.511e-09
7.42418e-09
1.46194e-08
1.10993e-08
4.08557e-08
2.17186e-08
1.06933e-07
9.35725e-08
2.62313e-07
4.0692e-07
5.97973e-07
1.07346e-06
1.45491e-06
2.52343e-06
3.08966e-06
4.40954e-06
5.23114e-06
6.87562e-06
8.21653e-06
9.43064e-06
1.11475e-05
1.2584e-05
1.4077e-05
1.51015e-05
1.62731e-05
2.01544e-05
2.27377e-05
2.41856e-05
2.54761e-05
2.54172e-05
2.70152e-05
2.923e-05
3.05053e-05
3.09076e-05
3.20569e-05
3.32412e-05
3.43201e-05
3.59664e-05
3.67587e-05
3.70371e-05
3.77462e-05
3.89681e-05
3.95081e-05
3.97149e-05
4.07681e-05
4.23964e-05
4.35218e-05
4.39302e-05
4.47875e-05
4.67346e-05
4.9016e-05
5.04541e-05
5.06663e-05
5.04461e-05
5.09567e-05
5.27704e-05
5.56e-05
5.86786e-05
6.13003e-05
6.32195e-05
6.45522e-05
6.52682e-05
6.54222e-05
6.53199e-05
6.5208e-05
6.51685e-05
6.51756e-05
6.52688e-05
6.54064e-05
6.56255e-05
6.58536e-05
6.61752e-05
6.64916e-05
6.68823e-05
6.72121e-05
6.75753e-05
6.78266e-05
6.80786e-05
6.81676e-05
6.82618e-05
6.81815e-05
6.81292e-05
6.79116e-05
6.77723e-05
6.7469e-05
6.73059e-05
6.69809e-05
6.68353e-05
6.65013e-05
6.63566e-05
6.60259e-05
6.59254e-05
6.56556e-05
6.56277e-05
6.54209e-05
6.5449e-05
6.52821e-05
6.53342e-05
6.51783e-05
6.52022e-05
6.49699e-05
6.48517e-05
6.43978e-05
6.39887e-05
6.31612e-05
6.23175e-05
6.09918e-05
5.96422e-05
5.77805e-05
5.59184e-05
5.35373e-05
5.12382e-05
4.84225e-05
4.58423e-05
4.2659e-05
3.99033e-05
3.6451e-05
3.3624e-05
2.99722e-05
2.69315e-05
2.31195e-05
2.02444e-05
1.62226e-05
1.43302e-05
1.15964e-05
1.1554e-05
9.41554e-06
5.88193e-06
1.53165e-05
3.05599e-05
4.16434e-05
4.40888e-05
4.13206e-05
2.39946e-05
8.08542e-06
1.77269e-06
1.216e-07
2.40916e-08
2.26529e-08
2.80872e-08
2.77023e-08
2.89099e-08
2.86024e-08
3.00255e-08
2.78812e-08
2.88073e-08
3.1586e-08
3.13166e-08
2.84755e-08
2.89193e-08
2.78947e-08
2.87244e-08
2.84998e-08
2.87468e-08
2.88184e-08
2.85745e-08
2.87561e-08
2.78652e-08
2.88638e-08
2.84717e-08
3.1194e-08
3.17045e-08
2.85592e-08
2.76829e-08
3.00887e-08
2.86647e-08
2.90702e-08
2.83551e-08
3.1147e-08
3.18549e-08
2.96422e-08
3.1376e-08
3.66595e-08
3.68867e-08
4.71471e-07
3.9422e-06
1.42806e-05
2.81739e-05
3.50111e-05
3.73926e-05
4.00473e-05
4.06175e-05
4.12858e-05
4.14707e-05
4.16551e-05
4.17632e-05
4.1854e-05
4.19459e-05
4.2034e-05
4.21238e-05
4.22276e-05
4.23237e-05
4.24441e-05
4.25478e-05
4.26794e-05
4.27888e-05
4.29299e-05
4.30427e-05
4.31893e-05
4.33039e-05
4.34547e-05
4.35677e-05
4.37222e-05
4.38313e-05
4.39857e-05
4.4091e-05
4.42438e-05
4.43463e-05
4.44961e-05
4.45953e-05
4.47425e-05
4.48276e-05
4.49524e-05
4.50178e-05
4.5123e-05
4.5173e-05
4.52626e-05
4.52902e-05
4.5363e-05
4.53682e-05
4.54126e-05
4.53918e-05
4.54044e-05
4.53469e-05
4.53235e-05
4.52374e-05
4.51827e-05
4.50735e-05
4.49923e-05
4.48513e-05
4.47267e-05
4.45569e-05
4.43883e-05
4.41938e-05
4.3975e-05
4.37398e-05
4.3472e-05
4.31858e-05
4.28662e-05
4.25247e-05
4.21483e-05
4.17515e-05
4.12661e-05
4.07469e-05
4.01742e-05
3.95996e-05
3.89642e-05
3.82656e-05
3.75063e-05
3.67048e-05
3.57929e-05
3.4886e-05
3.38991e-05
3.28154e-05
3.16846e-05
3.06183e-05
2.93956e-05
2.81196e-05
2.68484e-05
2.56951e-05
2.46093e-05
2.33016e-05
2.20401e-05
2.07629e-05
1.94414e-05
1.8171e-05
1.68994e-05
1.55939e-05
1.43598e-05
1.30585e-05
1.19203e-05
1.05766e-05
9.45169e-06
8.20314e-06
7.07308e-06
5.89338e-06
4.94403e-06
3.77047e-06
3.20368e-06
2.17957e-06
1.80494e-06
1.00713e-06
8.83766e-07
2.50475e-07
3.48507e-07
7.18804e-08
1.47462e-07
3.15049e-08
8.99452e-08
2.58847e-08
6.5089e-08
3.37749e-08
4.78018e-08
2.81886e-08
5.19411e-08
2.03553e-08
7.0873e-08
2.07578e-08
6.86668e-08
2.15236e-08
5.54012e-08
2.05247e-08
5.79256e-08
2.40945e-08
7.17885e-08
2.53226e-08
7.21492e-08
2.70155e-08
6.55295e-08
2.27605e-08
5.80587e-08
2.005e-08
6.07081e-08
2.08115e-08
6.82732e-08
2.26819e-08
6.22702e-08
1.99757e-08
5.7583e-08
2.82183e-08
7.38692e-08
3.83546e-08
7.08185e-08
3.44082e-08
6.81823e-08
3.90272e-08
7.00811e-08
3.69829e-08
4.50513e-08
2.40934e-08
1.62914e-08
3.19199e-08
3.91456e-08
4.58628e-08
6.44544e-08
5.75251e-08
6.35877e-08
5.5503e-08
5.76337e-08
8.4312e-08
1.57568e-07
7.38147e-08
7.51717e-08
4.37766e-08
5.63451e-08
3.38823e-08
5.61956e-08
3.02684e-08
5.78784e-08
2.70058e-08
5.1679e-08
1.89357e-08
3.38433e-08
1.00757e-08
1.76607e-08
6.41153e-09
1.04908e-08
6.26394e-09
8.88112e-09
9.14861e-09
9.43195e-09
1.42303e-08
8.92507e-09
1.42209e-08
1.12412e-08
1.8687e-08
2.14538e-08
1.66459e-08
2.62431e-08
8.93273e-09
2.45772e-08
3.38961e-09
1.46797e-08
4.98159e-09
1.33888e-08
6.81027e-09
1.43088e-08
9.98207e-09
1.75637e-08
3.2321e-08
3.89932e-09
1.90171e-07
2.5862e-09
4.68159e-07
7.44085e-08
7.40698e-07
1.36169e-06
1.65788e-06
2.54703e-06
3.81777e-06
5.35098e-06
5.43817e-06
6.85298e-06
1.21708e-05
1.52417e-05
1.65877e-05
1.77789e-05