/*--------------------------------*- C++ -*----------------------------------*\
| =========                 |                                                 |
| \\      /  F ield         | OpenFOAM: The Open Source CFD Toolbox           |
|  \\    /   O peration     | Version:  v2006                                 |
|   \\  /    A nd           | Website:  www.openfoam.com                      |
|    \\/     M anipulation  |                                                 |
\*---------------------------------------------------------------------------*/
FoamFile
{
    version     2.0;
    format      ascii;
    class       volScalarField;
    location    "150";
    object      nuTilda;
}
// * * * * * * * * * * * * * * * * * * * * * * * * * * * * * * * * * * * * * //

dimensions      [0 2 -1 0 0 0 0];


internalField   nonuniform List<scalar> 
93840
(
3.97896e-07
3.98201e-07
3.983e-07
3.98301e-07
3.99541e-07
4.00463e-07
4.02145e-07
4.01269e-07
4.02624e-07
4.02766e-07
4.03185e-07
4.03197e-07
4.02712e-07
4.00555e-07
3.92854e-07
3.73198e-07
3.64358e-07
4.20361e-07
6.12925e-07
1.97709e-06
8.47227e-06
2.34035e-05
3.73695e-05
3.76232e-05
3.37444e-05
2.99591e-05
2.42337e-05
2.14312e-05
1.84156e-05
1.60308e-05
1.40814e-05
1.30042e-05
1.294e-05
1.25286e-05
1.26124e-05
1.24486e-05
1.23432e-05
1.22998e-05
1.21451e-05
1.21559e-05
1.19918e-05
1.20168e-05
1.18643e-05
1.1886e-05
1.17243e-05
1.17363e-05
1.15892e-05
1.15921e-05
1.14636e-05
1.14527e-05
1.13342e-05
1.13212e-05
1.11875e-05
1.11706e-05
1.10906e-05
1.1137e-05
1.1043e-05
1.1034e-05
1.09051e-05
1.0898e-05
1.08283e-05
1.0815e-05
1.07183e-05
1.07558e-05
1.07034e-05
1.07137e-05
1.06696e-05
1.07147e-05
1.06757e-05
1.07054e-05
1.06914e-05
1.07217e-05
1.07181e-05
1.07675e-05
1.07665e-05
1.08186e-05
1.08374e-05
1.08903e-05
1.09303e-05
1.09929e-05
1.10221e-05
1.10837e-05
1.11289e-05
1.12164e-05
1.12846e-05
1.13668e-05
1.14413e-05
1.15257e-05
1.15985e-05
1.16914e-05
1.18028e-05
1.19325e-05
1.20509e-05
1.21873e-05
1.23191e-05
1.24751e-05
1.26234e-05
1.27843e-05
1.2951e-05
1.31403e-05
1.33295e-05
1.35193e-05
1.37174e-05
1.40961e-05
1.44664e-05
1.45581e-05
1.46376e-05
1.49281e-05
1.52438e-05
1.55661e-05
1.58841e-05
1.62089e-05
1.65253e-05
1.69099e-05
1.72553e-05
1.76032e-05
1.7925e-05
1.82993e-05
1.86058e-05
1.89226e-05
1.91538e-05
1.94227e-05
1.95576e-05
1.97636e-05
1.9713e-05
1.9698e-05
1.97833e-05
1.95509e-05
1.96322e-05
1.95269e-05
1.93763e-05
1.92978e-05
1.90907e-05
1.90925e-05
1.89341e-05
1.88812e-05
1.87117e-05
1.86782e-05
1.85626e-05
1.85091e-05
1.84467e-05
1.83617e-05
1.82712e-05
1.81944e-05
1.81453e-05
1.80644e-05
1.80239e-05
1.79396e-05
1.78612e-05
1.77521e-05
1.76703e-05
1.7562e-05
1.74593e-05
1.73304e-05
1.71891e-05
1.70221e-05
1.68536e-05
1.66715e-05
1.64626e-05
1.62594e-05
1.6057e-05
1.5846e-05
1.55605e-05
1.52766e-05
1.49635e-05
1.46031e-05
1.41524e-05
1.36265e-05
1.30112e-05
1.22758e-05
1.13452e-05
9.66521e-06
5.98097e-06
8.17128e-07
5.12556e-07
2.38678e-06
2.19874e-06
6.65698e-07
4.85307e-07
6.10374e-07
1.2239e-07
7.27252e-07
6.78614e-07
1.11508e-06
1.88545e-06
3.17272e-06
2.06267e-06
5.53282e-07
8.94012e-06
1.78836e-05
6.15663e-06
6.22831e-06
1.85389e-05
2.54863e-05
2.72009e-05
2.83985e-05
2.96597e-05
3.07387e-05
3.14279e-05
3.16066e-05
3.16797e-05
3.15586e-05
3.15509e-05
3.14083e-05
3.13515e-05
3.11787e-05
3.1089e-05
3.08969e-05
3.08096e-05
3.05964e-05
3.05155e-05
3.03376e-05
3.02552e-05
3.00906e-05
3.00125e-05
2.97864e-05
2.96667e-05
2.94847e-05
2.93674e-05
2.91763e-05
2.91759e-05
2.90176e-05
2.88786e-05
2.86747e-05
2.85051e-05
2.82844e-05
2.80938e-05
2.79133e-05
2.76978e-05
2.74895e-05
2.73024e-05
2.73335e-05
2.71513e-05
2.71952e-05
2.69688e-05
2.69003e-05
2.66258e-05
2.65824e-05
2.62755e-05
2.61233e-05
2.59474e-05
2.57399e-05
2.55843e-05
2.50967e-05
2.46536e-05
2.29043e-05
1.93842e-05
1.76494e-05
1.74085e-05
1.81229e-05
1.89973e-05
1.92458e-05
1.95677e-05
1.96142e-05
1.96103e-05
1.93427e-05
1.87918e-05
1.79837e-05
1.73598e-05
1.7022e-05
1.67378e-05
1.64647e-05
1.62425e-05
1.60248e-05
1.58047e-05
1.55559e-05
1.53438e-05
1.51075e-05
1.47332e-05
1.44253e-05
1.44669e-05
1.44984e-05
1.42451e-05
1.38821e-05
1.37461e-05
1.37006e-05
1.35268e-05
1.32548e-05
1.3026e-05
1.28406e-05
1.26517e-05
1.24657e-05
1.2272e-05
1.20835e-05
1.18816e-05
1.16908e-05
1.15087e-05
1.13338e-05
1.11544e-05
1.09731e-05
1.0791e-05
1.06078e-05
1.04226e-05
1.0238e-05
1.00551e-05
9.86677e-06
9.68625e-06
9.49858e-06
9.32064e-06
9.13551e-06
8.97125e-06
8.79292e-06
8.63261e-06
8.44331e-06
8.27744e-06
8.08948e-06
7.94773e-06
7.77349e-06
7.64579e-06
7.47196e-06
7.34992e-06
7.16633e-06
7.05829e-06
6.8754e-06
6.78711e-06
6.58939e-06
6.50617e-06
6.26006e-06
6.14947e-06
5.83605e-06
5.63641e-06
5.05968e-06
4.40133e-06
3.69537e-06
2.67825e-06
1.19603e-06
1.00935e-06
3.20738e-07
8.17712e-07
2.57126e-07
1.13613e-06
5.63464e-07
1.97707e-06
1.05936e-06
3.3752e-06
1.31843e-06
5.16986e-06
7.64111e-06
1.21965e-05
1.65594e-05
2.02427e-05
2.29044e-05
2.69287e-05
3.05715e-05
3.55791e-05
3.80277e-05
2.65109e-05
1.04597e-05
2.55991e-06
6.83489e-07
4.36917e-07
3.97091e-07
3.96004e-07
4.00659e-07
4.01717e-07
4.02524e-07
4.0278e-07
4.03116e-07
4.0288e-07
4.02776e-07
4.0138e-07
4.01779e-07
4.00672e-07
3.99474e-07
3.98301e-07
3.9785e-07
3.98012e-07
3.97896e-07
3.98e-07
3.98126e-07
3.97999e-07
3.98392e-07
3.99258e-07
4.00551e-07
4.01965e-07
4.01562e-07
4.02464e-07
4.02889e-07
4.02871e-07
4.02812e-07
4.03066e-07
4.04579e-07
4.13116e-07
4.19931e-07
3.95036e-07
3.93684e-07
5.42871e-07
1.43968e-06
6.40901e-06
1.97099e-05
3.55843e-05
3.89842e-05
3.70557e-05
3.54672e-05
3.04997e-05
2.69715e-05
2.35195e-05
2.01634e-05
1.83649e-05
1.72094e-05
1.63761e-05
1.63066e-05
1.68702e-05
1.61122e-05
1.68822e-05
1.61305e-05
1.67539e-05
1.62456e-05
1.66849e-05
1.62193e-05
1.67238e-05
1.62387e-05
1.67467e-05
1.61875e-05
1.68387e-05
1.61948e-05
1.6815e-05
1.63041e-05
1.6752e-05
1.64102e-05
1.6741e-05
1.64221e-05
1.67515e-05
1.64697e-05
1.68296e-05
1.66145e-05
1.68525e-05
1.66378e-05
1.68793e-05
1.67305e-05
1.69078e-05
1.67783e-05
1.69725e-05
1.68753e-05
1.70235e-05
1.69735e-05
1.71165e-05
1.70706e-05
1.71973e-05
1.71804e-05
1.72821e-05
1.72902e-05
1.73923e-05
1.74068e-05
1.75042e-05
1.75305e-05
1.76255e-05
1.76779e-05
1.77694e-05
1.78187e-05
1.79021e-05
1.79644e-05
1.80627e-05
1.81364e-05
1.82235e-05
1.83109e-05
1.83956e-05
1.84646e-05
1.8539e-05
1.8622e-05
1.87091e-05
1.87901e-05
1.88642e-05
1.89431e-05
1.9009e-05
1.90717e-05
1.91265e-05
1.91799e-05
1.92105e-05
1.92489e-05
1.92399e-05
1.92695e-05
1.93575e-05
1.9402e-05
1.93798e-05
1.93684e-05
1.93774e-05
1.9398e-05
1.93894e-05
1.93867e-05
1.93626e-05
1.9344e-05
1.93104e-05
1.92687e-05
1.9211e-05
1.91517e-05
1.90596e-05
1.89896e-05
1.88539e-05
1.87516e-05
1.85828e-05
1.84449e-05
1.82393e-05
1.81035e-05
1.78793e-05
1.77131e-05
1.75248e-05
1.73096e-05
1.71287e-05
1.69296e-05
1.67403e-05
1.65604e-05
1.63485e-05
1.61764e-05
1.59673e-05
1.58032e-05
1.559e-05
1.54216e-05
1.52013e-05
1.5022e-05
1.48093e-05
1.46272e-05
1.43986e-05
1.41927e-05
1.39496e-05
1.37218e-05
1.34648e-05
1.32258e-05
1.29518e-05
1.26758e-05
1.23656e-05
1.20337e-05
1.16548e-05
1.12422e-05
1.07809e-05
1.02811e-05
9.75465e-06
9.2067e-06
8.50261e-06
7.56108e-06
6.49242e-06
5.68724e-06
5.3886e-06
5.14335e-06
4.21507e-06
2.7569e-06
1.74983e-06
1.63483e-06
1.70169e-06
1.12687e-06
2.63991e-07
1.25694e-07
4.22555e-07
2.96473e-07
5.33823e-07
1.54989e-07
4.26173e-07
4.55316e-07
5.01516e-07
3.68868e-07
2.67037e-07
2.12834e-07
5.78262e-08
3.51361e-07
3.67e-07
5.21846e-08
8.50328e-07
1.08089e-06
6.08102e-07
1.52209e-06
2.70731e-06
5.72587e-06
5.44287e-06
3.58788e-06
4.6704e-06
8.05362e-06
1.09092e-05
1.24652e-05
1.38845e-05
1.54276e-05
1.69227e-05
1.80025e-05
1.89545e-05
1.98134e-05
2.06503e-05
2.12279e-05
2.17791e-05
2.22053e-05
2.26406e-05
2.29478e-05
2.32946e-05
2.35405e-05
2.37822e-05
2.39515e-05
2.41681e-05
2.43016e-05
2.4491e-05
2.45947e-05
2.4771e-05
2.48641e-05
2.50265e-05
2.5102e-05
2.52503e-05
2.53345e-05
2.54623e-05
2.55603e-05
2.56596e-05
2.58044e-05
2.58317e-05
2.5985e-05
2.59948e-05
2.61073e-05
2.62672e-05
2.62494e-05
2.6405e-05
2.68426e-05
2.63681e-05
2.65691e-05
2.66212e-05
2.74954e-05
2.72536e-05
2.75725e-05
2.73475e-05
2.64801e-05
2.70582e-05
2.71499e-05
2.70715e-05
2.68253e-05
2.65686e-05
2.63791e-05
2.61086e-05
2.5876e-05
2.58148e-05
2.56868e-05
2.55002e-05
2.53743e-05
2.55064e-05
2.55651e-05
2.54401e-05
2.52559e-05
2.52855e-05
2.5424e-05
2.54829e-05
2.53094e-05
2.50313e-05
2.4754e-05
2.4676e-05
2.4938e-05
2.52981e-05
2.54256e-05
2.53659e-05
2.53441e-05
2.53045e-05
2.51031e-05
2.4779e-05
2.44939e-05
2.42687e-05
2.40539e-05
2.38421e-05
2.36437e-05
2.34614e-05
2.32886e-05
2.31218e-05
2.29872e-05
2.28421e-05
2.27159e-05
2.25623e-05
2.243e-05
2.22623e-05
2.21233e-05
2.1924e-05
2.17889e-05
2.15652e-05
2.14293e-05
2.11826e-05
2.1071e-05
2.08009e-05
2.07314e-05
2.04475e-05
2.0417e-05
2.00926e-05
2.00942e-05
1.97507e-05
1.98215e-05
1.94637e-05
1.95973e-05
1.91925e-05
1.93807e-05
1.89246e-05
1.91644e-05
1.86696e-05
1.89539e-05
1.8396e-05
1.8661e-05
1.80184e-05
1.81678e-05
1.73988e-05
1.72305e-05
1.60902e-05
1.48706e-05
1.26763e-05
1.05592e-05
8.37178e-06
6.4829e-06
5.02587e-06
4.08261e-06
3.62596e-06
3.68059e-06
2.40712e-06
3.27859e-06
3.07615e-06
3.91912e-06
2.84897e-06
2.80447e-06
3.25465e-06
3.79209e-06
7.41873e-06
1.39255e-05
1.89617e-05
2.40438e-05
2.78989e-05
2.93984e-05
3.30534e-05
3.76968e-05
2.96289e-05
1.29912e-05
3.37982e-06
8.21401e-07
4.4414e-07
4.09851e-07
3.93699e-07
3.98382e-07
4.02659e-07
4.02166e-07
4.02854e-07
4.02615e-07
4.02589e-07
4.03218e-07
4.01155e-07
4.01693e-07
4.0056e-07
3.9969e-07
3.98212e-07
3.98418e-07
3.98095e-07
3.97853e-07
3.97969e-07
3.9809e-07
3.98376e-07
3.98393e-07
3.99442e-07
4.00347e-07
4.01989e-07
4.01218e-07
4.02335e-07
4.02613e-07
4.03204e-07
4.03087e-07
4.03337e-07
4.00731e-07
4.00577e-07
4.19134e-07
4.42537e-07
4.17653e-07
4.67052e-07
1.06322e-06
4.61098e-06
1.56946e-05
3.23372e-05
3.8733e-05
3.81643e-05
3.85137e-05
3.61599e-05
3.40915e-05
3.17361e-05
2.9464e-05
2.8067e-05
2.7358e-05
2.59645e-05
2.66483e-05
2.59287e-05
2.63227e-05
2.59999e-05
2.61711e-05
2.60994e-05
2.61179e-05
2.61923e-05
2.61057e-05
2.62994e-05
2.61624e-05
2.63675e-05
2.62326e-05
2.64683e-05
2.62909e-05
2.6557e-05
2.63859e-05
2.66376e-05
2.64873e-05
2.67073e-05
2.65574e-05
2.67981e-05
2.66936e-05
2.69925e-05
2.68706e-05
2.70658e-05
2.69299e-05
2.71485e-05
2.70407e-05
2.72111e-05
2.71264e-05
2.73273e-05
2.72476e-05
2.74159e-05
2.73823e-05
2.75372e-05
2.74922e-05
2.76305e-05
2.76003e-05
2.77095e-05
2.77045e-05
2.78059e-05
2.78013e-05
2.78923e-05
2.7895e-05
2.79796e-05
2.8007e-05
2.80679e-05
2.80752e-05
2.81198e-05
2.81402e-05
2.81971e-05
2.82129e-05
2.8243e-05
2.82617e-05
2.82609e-05
2.82278e-05
2.81939e-05
2.81701e-05
2.81405e-05
2.80886e-05
2.80171e-05
2.79416e-05
2.78303e-05
2.76984e-05
2.75511e-05
2.73795e-05
2.71546e-05
2.69458e-05
2.66533e-05
2.64214e-05
2.6291e-05
2.60765e-05
2.57495e-05
2.54119e-05
2.51019e-05
2.4806e-05
2.44546e-05
2.41121e-05
2.37328e-05
2.33537e-05
2.29721e-05
2.25604e-05
2.21606e-05
2.17402e-05
2.13211e-05
2.09348e-05
2.04933e-05
2.01071e-05
1.96924e-05
1.92923e-05
1.89162e-05
1.8542e-05
1.8124e-05
1.7798e-05
1.73775e-05
1.70259e-05
1.66477e-05
1.62873e-05
1.59103e-05
1.55404e-05
1.51408e-05
1.47836e-05
1.43716e-05
1.39977e-05
1.35665e-05
1.31765e-05
1.27299e-05
1.23323e-05
1.18826e-05
1.14548e-05
1.09514e-05
1.04687e-05
9.91702e-06
9.38335e-06
8.79074e-06
8.22443e-06
7.58783e-06
6.95405e-06
6.23613e-06
5.49026e-06
4.70983e-06
4.00034e-06
3.30229e-06
2.60941e-06
2.04196e-06
1.80315e-06
1.542e-06
9.72226e-07
4.25563e-07
4.01133e-07
5.02288e-07
3.90533e-07
3.10387e-07
3.899e-07
4.09942e-07
3.92009e-07
2.98715e-07
3.33489e-07
5.12964e-07
5.38498e-07
4.05311e-07
3.99147e-07
3.08711e-07
5.32215e-07
4.54963e-07
3.31385e-07
3.9092e-07
5.38577e-07
4.66592e-07
4.66283e-07
5.55489e-07
4.79913e-07
4.97696e-07
4.65089e-07
4.29379e-07
4.05152e-07
5.40251e-07
4.98074e-07
5.44467e-07
1.01518e-06
9.18143e-07
7.45695e-07
3.6049e-07
1.44253e-06
1.95791e-06
1.37196e-06
1.81981e-06
2.99778e-06
3.579e-06
3.85663e-06
4.66401e-06
5.76981e-06
6.78563e-06
7.61883e-06
8.55404e-06
9.56922e-06
1.07987e-05
1.20488e-05
1.33684e-05
1.45748e-05
1.56531e-05
1.66146e-05
1.75322e-05
1.8321e-05
1.90787e-05
1.97431e-05
2.04435e-05
2.09736e-05
2.15467e-05
2.2021e-05
2.25485e-05
2.3042e-05
2.3553e-05
2.41091e-05
2.45509e-05
2.51677e-05
2.55342e-05
2.61753e-05
2.64885e-05
2.69277e-05
2.74993e-05
2.77032e-05
2.82389e-05
2.91859e-05
2.87484e-05
2.9661e-05
3.05384e-05
3.21335e-05
3.25298e-05
3.29191e-05
3.31179e-05
3.21847e-05
3.36478e-05
3.44132e-05
3.48535e-05
3.5032e-05
3.50838e-05
3.52296e-05
3.50094e-05
3.47402e-05
3.48107e-05
3.48037e-05
3.46174e-05
3.45548e-05
3.51114e-05
3.56627e-05
3.58248e-05
3.57981e-05
3.62094e-05
3.69778e-05
3.76268e-05
3.77296e-05
3.74724e-05
3.72087e-05
3.73596e-05
3.82598e-05
3.96052e-05
4.06074e-05
4.10508e-05
4.13497e-05
4.16644e-05
4.16822e-05
4.1331e-05
4.09297e-05
4.06555e-05
4.04463e-05
4.02472e-05
4.00766e-05
3.99283e-05
3.98107e-05
3.96924e-05
3.96402e-05
3.95828e-05
3.95596e-05
3.9484e-05
3.94349e-05
3.93091e-05
3.92137e-05
3.90054e-05
3.88688e-05
3.85958e-05
3.84301e-05
3.81061e-05
3.79436e-05
3.75824e-05
3.74609e-05
3.70945e-05
3.70236e-05
3.662e-05
3.65616e-05
3.61344e-05
3.61479e-05
3.57573e-05
3.58527e-05
3.54606e-05
3.55974e-05
3.51699e-05
3.5328e-05
3.48664e-05
3.5021e-05
3.44682e-05
3.45309e-05
3.37614e-05
3.35797e-05
3.24221e-05
3.17682e-05
2.9995e-05
2.85942e-05
2.58957e-05
2.35065e-05
1.99583e-05
1.70746e-05
1.33338e-05
1.10904e-05
8.62351e-06
8.01326e-06
6.47575e-06
6.19888e-06
5.2116e-06
6.05085e-06
5.11099e-06
4.74199e-06
4.49178e-06
4.58175e-06
4.05125e-06
8.42436e-06
1.35754e-05
2.11917e-05
2.90322e-05
3.17983e-05
3.24125e-05
3.70491e-05
3.2114e-05
1.56328e-05
4.38003e-06
1.03989e-06
4.68608e-07
4.2194e-07
4.06134e-07
3.99755e-07
4.02075e-07
4.0373e-07
4.02744e-07
4.02788e-07
4.02843e-07
4.03153e-07
4.01331e-07
4.01826e-07
4.00725e-07
3.99519e-07
3.98417e-07
3.98051e-07
3.98092e-07
3.97994e-07
3.97678e-07
3.97938e-07
3.97876e-07
3.98241e-07
3.99166e-07
4.00451e-07
4.0197e-07
4.01558e-07
4.02285e-07
4.02468e-07
4.0314e-07
4.02611e-07
4.04094e-07
4.06898e-07
4.16036e-07
4.36363e-07
4.49072e-07
4.08376e-07
4.09796e-07
8.09095e-07
3.31746e-06
1.23147e-05
2.86434e-05
3.77627e-05
3.84546e-05
3.95706e-05
3.86328e-05
3.74134e-05
3.59909e-05
3.47597e-05
3.37628e-05
3.3301e-05
3.29053e-05
3.26631e-05
3.26031e-05
3.24828e-05
3.25236e-05
3.24711e-05
3.25643e-05
3.25199e-05
3.26533e-05
3.25935e-05
3.27743e-05
3.27025e-05
3.28857e-05
3.28323e-05
3.30166e-05
3.29528e-05
3.3152e-05
3.30912e-05
3.32855e-05
3.32282e-05
3.34126e-05
3.33621e-05
3.35617e-05
3.35351e-05
3.37721e-05
3.37247e-05
3.38948e-05
3.38313e-05
3.4007e-05
3.39523e-05
3.41088e-05
3.40645e-05
3.42376e-05
3.41923e-05
3.43442e-05
3.43231e-05
3.44587e-05
3.44227e-05
3.45368e-05
3.45017e-05
3.45897e-05
3.45675e-05
3.46436e-05
3.46183e-05
3.46769e-05
3.46522e-05
3.46973e-05
3.4685e-05
3.46977e-05
3.46599e-05
3.46509e-05
3.46168e-05
3.46063e-05
3.45529e-05
3.45064e-05
3.44437e-05
3.43485e-05
3.42137e-05
3.40681e-05
3.3928e-05
3.3775e-05
3.35868e-05
3.33681e-05
3.31359e-05
3.28459e-05
3.25333e-05
3.21957e-05
3.18119e-05
3.13602e-05
3.09413e-05
3.04254e-05
2.99572e-05
2.95578e-05
2.90862e-05
2.85431e-05
2.79489e-05
2.73701e-05
2.68085e-05
2.61776e-05
2.55641e-05
2.49147e-05
2.42603e-05
2.36139e-05
2.2927e-05
2.22907e-05
2.16092e-05
2.09679e-05
2.03574e-05
1.97097e-05
1.91219e-05
1.85346e-05
1.79252e-05
1.74168e-05
1.68479e-05
1.62949e-05
1.57932e-05
1.52355e-05
1.47126e-05
1.41743e-05
1.36674e-05
1.31085e-05
1.25932e-05
1.20006e-05
1.14872e-05
1.08768e-05
1.03208e-05
9.66391e-06
9.04833e-06
8.33988e-06
7.67517e-06
6.93784e-06
6.21866e-06
5.42477e-06
4.69629e-06
3.96262e-06
3.35097e-06
2.75907e-06
2.28999e-06
1.82573e-06
1.48656e-06
1.15648e-06
9.01164e-07
6.45648e-07
5.44839e-07
4.90461e-07
4.41968e-07
3.45904e-07
4.07454e-07
4.22614e-07
3.97729e-07
3.72322e-07
4.48508e-07
4.16107e-07
4.06517e-07
3.89618e-07
3.73183e-07
3.43034e-07
4.0784e-07
4.12428e-07
4.15935e-07
3.58507e-07
3.45715e-07
4.0746e-07
4.63092e-07
4.99303e-07
3.79125e-07
4.24984e-07
4.89637e-07
3.93641e-07
3.89155e-07
2.90046e-07
4.07554e-07
4.66483e-07
4.21386e-07
4.14472e-07
4.60874e-07
4.68805e-07
3.88824e-07
3.95364e-07
4.00892e-07
3.22472e-07
3.92498e-07
4.67458e-07
3.56211e-07
3.14116e-07
4.47902e-07
5.07851e-07
3.47564e-07
3.59191e-07
5.98392e-07
6.15111e-07
5.58132e-07
7.74047e-07
9.02866e-07
1.00497e-06
1.17547e-06
1.41481e-06
1.62771e-06
2.0253e-06
2.59307e-06
3.23478e-06
4.00484e-06
4.86691e-06
5.88089e-06
7.00421e-06
8.17852e-06
9.4461e-06
1.07153e-05
1.21042e-05
1.3242e-05
1.43607e-05
1.53287e-05
1.62868e-05
1.72117e-05
1.80995e-05
1.90973e-05
1.98661e-05
2.09114e-05
2.15829e-05
2.26681e-05
2.33241e-05
2.4068e-05
2.50048e-05
2.55241e-05
2.63404e-05
2.74719e-05
2.74403e-05
2.91301e-05
3.07479e-05
3.23904e-05
3.34616e-05
3.3557e-05
3.43002e-05
3.44483e-05
3.57047e-05
3.64791e-05
3.71706e-05
3.76608e-05
3.80942e-05
3.87202e-05
3.87504e-05
3.85907e-05
3.88622e-05
3.91347e-05
3.90869e-05
3.90633e-05
3.98434e-05
4.0761e-05
4.11903e-05
4.12854e-05
4.1925e-05
4.31678e-05
4.43562e-05
4.48039e-05
4.46208e-05
4.43736e-05
4.47077e-05
4.60091e-05
4.79747e-05
4.97158e-05
5.08055e-05
5.15253e-05
5.21178e-05
5.23325e-05
5.20871e-05
5.17137e-05
5.14449e-05
5.12626e-05
5.11077e-05
5.10007e-05
5.09207e-05
5.08906e-05
5.08597e-05
5.09104e-05
5.0956e-05
5.10536e-05
5.10885e-05
5.11522e-05
5.11174e-05
5.11048e-05
5.09538e-05
5.08578e-05
5.06047e-05
5.04425e-05
5.01147e-05
4.99282e-05
4.95521e-05
4.93913e-05
4.90142e-05
4.88951e-05
4.84951e-05
4.83816e-05
4.79693e-05
4.79166e-05
4.7561e-05
4.75888e-05
4.72677e-05
4.7336e-05
4.70108e-05
4.70868e-05
4.67443e-05
4.6784e-05
4.63455e-05
4.62435e-05
4.55613e-05
4.5151e-05
4.40426e-05
4.31225e-05
4.14028e-05
3.98286e-05
3.73715e-05
3.50347e-05
3.18575e-05
2.89957e-05
2.53034e-05
2.22041e-05
1.84072e-05
1.58122e-05
1.28943e-05
1.12821e-05
9.11138e-06
8.92368e-06
7.94734e-06
7.95097e-06
7.04921e-06
7.69285e-06
6.64418e-06
5.17369e-06
7.71252e-06
1.47994e-05
2.76158e-05
3.49036e-05
3.45169e-05
3.7487e-05
3.42537e-05
1.81073e-05
5.43501e-06
1.27853e-06
4.89509e-07
4.21342e-07
4.05284e-07
3.94206e-07
3.97869e-07
4.01821e-07
4.02444e-07
4.02571e-07
4.02905e-07
4.03044e-07
4.01156e-07
4.01786e-07
4.00476e-07
3.99522e-07
3.98269e-07
3.98167e-07
3.98032e-07
3.97853e-07
3.98114e-07
3.98157e-07
3.98235e-07
3.98492e-07
3.99548e-07
4.00465e-07
4.02124e-07
4.01514e-07
4.02474e-07
4.0277e-07
4.03117e-07
4.02416e-07
4.01994e-07
3.96353e-07
3.80131e-07
3.60003e-07
3.70161e-07
3.96581e-07
4.0667e-07
6.35457e-07
2.23196e-06
9.12233e-06
2.42726e-05
3.57999e-05
3.82108e-05
3.99144e-05
4.02686e-05
3.9721e-05
3.92086e-05
3.85091e-05
3.80322e-05
3.77497e-05
3.74457e-05
3.73686e-05
3.72557e-05
3.7242e-05
3.72439e-05
3.72639e-05
3.73267e-05
3.73595e-05
3.74551e-05
3.74875e-05
3.76132e-05
3.76383e-05
3.77782e-05
3.78065e-05
3.79545e-05
3.79743e-05
3.81367e-05
3.81523e-05
3.83163e-05
3.83288e-05
3.8492e-05
3.851e-05
3.86828e-05
3.87116e-05
3.89043e-05
3.89153e-05
3.90635e-05
3.90565e-05
3.91993e-05
3.91901e-05
3.93248e-05
3.93146e-05
3.94532e-05
3.94352e-05
3.95568e-05
3.95434e-05
3.96451e-05
3.96106e-05
3.96865e-05
3.96403e-05
3.96906e-05
3.9645e-05
3.96799e-05
3.96244e-05
3.96338e-05
3.957e-05
3.95565e-05
3.94918e-05
3.94394e-05
3.9345e-05
3.92643e-05
3.91581e-05
3.90586e-05
3.892e-05
3.87767e-05
3.86157e-05
3.84058e-05
3.81531e-05
3.78772e-05
3.76029e-05
3.7305e-05
3.69598e-05
3.65733e-05
3.61639e-05
3.56753e-05
3.51696e-05
3.46249e-05
3.40129e-05
3.33304e-05
3.26976e-05
3.19515e-05
3.12226e-05
3.05252e-05
2.98024e-05
2.90625e-05
2.8216e-05
2.73818e-05
2.65625e-05
2.56707e-05
2.48081e-05
2.39191e-05
2.30174e-05
2.21402e-05
2.12165e-05
2.03868e-05
1.94768e-05
1.86601e-05
1.78521e-05
1.70367e-05
1.6263e-05
1.55302e-05
1.47108e-05
1.40877e-05
1.3317e-05
1.26454e-05
1.19544e-05
1.12805e-05
1.05548e-05
9.85917e-06
9.1666e-06
8.38641e-06
7.66812e-06
6.81395e-06
6.10236e-06
5.25491e-06
4.56453e-06
3.77385e-06
3.16958e-06
2.52658e-06
2.09663e-06
1.65024e-06
1.35147e-06
1.00666e-06
8.38854e-07
6.40381e-07
5.897e-07
4.8239e-07
5.08723e-07
4.41175e-07
4.57779e-07
4.1565e-07
4.52297e-07
3.99438e-07
4.36264e-07
3.95151e-07
4.28146e-07
4.05172e-07
4.31074e-07
3.91665e-07
4.33895e-07
3.9801e-07
4.11816e-07
3.83298e-07
4.45253e-07
4.33801e-07
4.66934e-07
4.33001e-07
4.3205e-07
4.1542e-07
4.35863e-07
4.40026e-07
4.34936e-07
4.09697e-07
3.22423e-07
3.62995e-07
3.3584e-07
3.98119e-07
3.56227e-07
4.04452e-07
4.66549e-07
4.64358e-07
4.89618e-07
4.76237e-07
3.7484e-07
3.72753e-07
3.68728e-07
3.83842e-07
4.23851e-07
4.51003e-07
4.50035e-07
4.15768e-07
4.21604e-07
4.58999e-07
4.33418e-07
4.48311e-07
4.52049e-07
4.86234e-07
4.86753e-07
4.89458e-07
5.23037e-07
5.35494e-07
5.2032e-07
5.65813e-07
5.57794e-07
5.15795e-07
5.34838e-07
4.72743e-07
4.56141e-07
4.262e-07
5.203e-07
5.58864e-07
7.33094e-07
8.36879e-07
1.01699e-06
1.27999e-06
1.52669e-06
1.93252e-06
2.43984e-06
3.24765e-06
3.9789e-06
4.87165e-06
5.75916e-06
6.73873e-06
7.92303e-06
9.14432e-06
1.06914e-05
1.19198e-05
1.34861e-05
1.45547e-05
1.60917e-05
1.71713e-05
1.81812e-05
1.94851e-05
2.03849e-05
2.14889e-05
2.2596e-05
2.31538e-05
2.58348e-05
2.8002e-05
2.95497e-05
3.09242e-05
3.08182e-05
3.20788e-05
3.33139e-05
3.44957e-05
3.51051e-05
3.6035e-05
3.68549e-05
3.76443e-05
3.87973e-05
3.91857e-05
3.92169e-05
3.97157e-05
4.04066e-05
4.06102e-05
4.06652e-05
4.15999e-05
4.28751e-05
4.36218e-05
4.38529e-05
4.4636e-05
4.6277e-05
4.80199e-05
4.89178e-05
4.8886e-05
4.86486e-05
4.91077e-05
5.0714e-05
5.3172e-05
5.56142e-05
5.74469e-05
5.87152e-05
5.96422e-05
6.00865e-05
6.00144e-05
5.97461e-05
5.95328e-05
5.94073e-05
5.93219e-05
5.93045e-05
5.93215e-05
5.94052e-05
5.9492e-05
5.96677e-05
5.98395e-05
6.00768e-05
6.02485e-05
6.04517e-05
6.05448e-05
6.06496e-05
6.05999e-05
6.05818e-05
6.03939e-05
6.0269e-05
5.9977e-05
5.97975e-05
5.94418e-05
5.92654e-05
5.89024e-05
5.87579e-05
5.83817e-05
5.824e-05
5.78605e-05
5.77709e-05
5.74541e-05
5.7442e-05
5.71794e-05
5.7216e-05
5.69742e-05
5.70224e-05
5.67773e-05
5.67864e-05
5.64485e-05
5.63033e-05
5.57223e-05
5.52613e-05
5.42682e-05
5.33229e-05
5.17663e-05
5.0245e-05
4.80696e-05
4.59379e-05
4.31524e-05
4.05441e-05
3.7274e-05
3.44248e-05
3.07762e-05
2.78912e-05
2.41951e-05
2.14093e-05
1.78829e-05
1.53506e-05
1.30745e-05
1.14416e-05
1.03728e-05
9.64636e-06
9.53916e-06
8.49791e-06
5.57807e-06
8.59706e-06
2.2473e-05
3.52901e-05
3.84539e-05
3.99242e-05
3.70207e-05
2.07808e-05
6.65638e-06
1.60266e-06
5.28531e-07
4.19635e-07
4.31125e-07
4.14404e-07
4.04125e-07
4.02947e-07
4.03146e-07
4.02693e-07
4.02808e-07
4.02637e-07
4.01396e-07
4.02045e-07
4.0038e-07
3.99608e-07
3.98516e-07
3.9781e-07
3.98067e-07
3.98029e-07
3.97653e-07
3.97816e-07
3.97759e-07
3.98298e-07
3.99204e-07
4.00336e-07
4.01527e-07
4.01304e-07
4.02297e-07
4.02459e-07
4.03349e-07
4.02568e-07
4.02925e-07
4.04038e-07
3.99129e-07
3.66652e-07
3.48043e-07
3.92179e-07
4.18193e-07
5.0311e-07
1.4754e-06
6.28525e-06
1.9321e-05
3.25861e-05
3.70399e-05
3.91434e-05
4.07572e-05
4.07721e-05
4.09233e-05
4.07168e-05
4.05923e-05
4.0505e-05
4.04078e-05
4.04018e-05
4.038e-05
4.04131e-05
4.04535e-05
4.05104e-05
4.05938e-05
4.06628e-05
4.07711e-05
4.08449e-05
4.0972e-05
4.10459e-05
4.1184e-05
4.12593e-05
4.14039e-05
4.14761e-05
4.1629e-05
4.16968e-05
4.18509e-05
4.19152e-05
4.20702e-05
4.21362e-05
4.2294e-05
4.23621e-05
4.25273e-05
4.25807e-05
4.27154e-05
4.27498e-05
4.28708e-05
4.28962e-05
4.30087e-05
4.30219e-05
4.31271e-05
4.31258e-05
4.32108e-05
4.31975e-05
4.32576e-05
4.32158e-05
4.32447e-05
4.31819e-05
4.31832e-05
4.31087e-05
4.30903e-05
4.29962e-05
4.29435e-05
4.2831e-05
4.2745e-05
4.2619e-05
4.24887e-05
4.2328e-05
4.21604e-05
4.19692e-05
4.17652e-05
4.15293e-05
4.12753e-05
4.10021e-05
4.06612e-05
4.02789e-05
3.98592e-05
3.94389e-05
3.89791e-05
3.84619e-05
3.78935e-05
3.72921e-05
3.6594e-05
3.58883e-05
3.51254e-05
3.42777e-05
3.33671e-05
3.25176e-05
3.15341e-05
3.05299e-05
2.95345e-05
2.8582e-05
2.76612e-05
2.65737e-05
2.55089e-05
2.44482e-05
2.33235e-05
2.22412e-05
2.11454e-05
2.00273e-05
1.89568e-05
1.78331e-05
1.68448e-05
1.57296e-05
1.47737e-05
1.37832e-05
1.28295e-05
1.18755e-05
1.10048e-05
9.9546e-06
9.20253e-06
8.16937e-06
7.3391e-06
6.39466e-06
5.59355e-06
4.68398e-06
3.96438e-06
3.26459e-06
2.61709e-06
2.12716e-06
1.60696e-06
1.3451e-06
9.58717e-07
8.70043e-07
6.12557e-07
6.24888e-07
4.66516e-07
5.05728e-07
3.97718e-07
4.58094e-07
3.66721e-07
4.48028e-07
3.76915e-07
4.54254e-07
3.70636e-07
4.29822e-07
3.59044e-07
4.1553e-07
3.63409e-07
4.13144e-07
3.72877e-07
4.24855e-07
3.94732e-07
4.26112e-07
3.98004e-07
4.16007e-07
3.95475e-07
4.10636e-07
3.96605e-07
4.27022e-07
4.06842e-07
4.00682e-07
3.66057e-07
3.70716e-07
3.78396e-07
3.82707e-07
3.97875e-07
3.63944e-07
4.02866e-07
3.63621e-07
4.54821e-07
4.41892e-07
5.22118e-07
4.77169e-07
4.15032e-07
4.39187e-07
3.78871e-07
4.3794e-07
3.40517e-07
4.34498e-07
3.36617e-07
3.45178e-07
5.20873e-07
4.9499e-07
5.06314e-07
4.65698e-07
5.00786e-07
4.78559e-07
5.02357e-07
4.90252e-07
5.15949e-07
5.03897e-07
5.12623e-07
5.01801e-07
5.21651e-07
5.07665e-07
5.33365e-07
4.87695e-07
4.99648e-07
4.26735e-07
4.30469e-07
3.73874e-07
3.64218e-07
3.61998e-07
3.58853e-07
3.91257e-07
4.00435e-07
4.05009e-07
3.56091e-07
3.60802e-07
3.48864e-07
3.47325e-07
4.13293e-07
3.84741e-07
5.40151e-07
4.57462e-07
7.03266e-07
6.78357e-07
9.20423e-07
1.06494e-06
1.22795e-06
1.59066e-06
1.881e-06
2.75692e-06
3.26293e-06
4.50257e-06
5.29997e-06
6.91647e-06
8.24602e-06
9.45328e-06
1.11641e-05
1.25971e-05
1.40876e-05
1.51108e-05
1.62812e-05
2.01597e-05
2.27419e-05
2.41894e-05
2.54796e-05
2.54207e-05
2.70182e-05
2.92327e-05
3.05076e-05
3.09095e-05
3.20586e-05
3.32428e-05
3.43216e-05
3.59678e-05
3.67601e-05
3.70384e-05
3.77475e-05
3.89693e-05
3.95092e-05
3.9716e-05
4.07691e-05
4.23973e-05
4.35226e-05
4.3931e-05
4.47883e-05
4.67354e-05
4.90167e-05
5.04547e-05
5.06669e-05
5.04467e-05
5.09573e-05
5.27709e-05
5.56005e-05
5.8679e-05
6.13007e-05
6.32199e-05
6.45526e-05
6.52686e-05
6.54226e-05
6.53202e-05
6.52083e-05
6.51688e-05
6.51759e-05
6.52691e-05
6.54067e-05
6.56258e-05
6.58539e-05
6.61755e-05
6.64919e-05
6.68826e-05
6.72124e-05
6.75756e-05
6.78268e-05
6.80789e-05
6.81679e-05
6.8262e-05
6.81818e-05
6.81295e-05
6.79119e-05
6.77726e-05
6.74693e-05
6.73061e-05
6.69812e-05
6.68356e-05
6.65016e-05
6.63568e-05
6.60262e-05
6.59257e-05
6.56559e-05
6.56279e-05
6.54212e-05
6.54493e-05
6.52824e-05
6.53345e-05
6.51785e-05
6.52025e-05
6.49701e-05
6.4852e-05
6.43981e-05
6.3989e-05
6.31615e-05
6.23178e-05
6.09921e-05
5.96425e-05
5.77808e-05
5.59187e-05
5.35377e-05
5.12386e-05
4.8423e-05
4.58428e-05
4.26596e-05
3.9904e-05
3.64518e-05
3.3625e-05
2.99734e-05
2.6933e-05
2.31216e-05
2.02471e-05
1.62267e-05
1.43355e-05
1.16044e-05
1.15621e-05
9.42768e-06
5.91314e-06
1.5321e-05
3.05611e-05
4.1644e-05
4.40893e-05
4.13211e-05
2.39961e-05
8.09781e-06
1.96048e-06
5.92345e-07
3.79822e-07
3.76191e-07
3.97656e-07
4.00547e-07
4.01973e-07
4.02753e-07
4.02748e-07
4.03017e-07
4.02898e-07
4.014e-07
4.02223e-07
4.00391e-07
3.99571e-07
3.98399e-07
3.98283e-07
3.98022e-07
3.9795e-07
3.98191e-07
3.98335e-07
3.98415e-07
3.98198e-07
3.99388e-07
4.00201e-07
4.01731e-07
4.01748e-07
4.02079e-07
4.0225e-07
4.02942e-07
4.02598e-07
4.0215e-07
4.02339e-07
4.08873e-07
4.11096e-07
4.01033e-07
4.058e-07
4.2244e-07
4.21683e-07
9.30068e-07
3.99037e-06
1.42845e-05
2.81749e-05
3.50117e-05
3.73932e-05
4.00478e-05
4.0618e-05
4.12863e-05
4.14711e-05
4.16556e-05
4.17636e-05
4.18545e-05
4.19463e-05
4.20345e-05
4.21243e-05
4.22281e-05
4.23242e-05
4.24446e-05
4.25483e-05
4.26798e-05
4.27892e-05
4.29303e-05
4.30431e-05
4.31898e-05
4.33043e-05
4.34552e-05
4.35681e-05
4.37226e-05
4.38317e-05
4.39861e-05
4.40914e-05
4.42442e-05
4.43467e-05
4.44965e-05
4.45957e-05
4.47429e-05
4.4828e-05
4.49528e-05
4.50182e-05
4.51234e-05
4.51734e-05
4.5263e-05
4.52906e-05
4.53634e-05
4.53686e-05
4.54129e-05
4.53922e-05
4.54048e-05
4.53473e-05
4.53239e-05
4.52378e-05
4.51831e-05
4.50739e-05
4.49927e-05
4.48517e-05
4.47271e-05
4.45574e-05
4.43887e-05
4.41942e-05
4.39754e-05
4.37402e-05
4.34724e-05
4.31862e-05
4.28667e-05
4.25251e-05
4.21488e-05
4.1752e-05
4.12666e-05
4.07474e-05
4.01747e-05
3.96002e-05
3.89647e-05
3.82662e-05
3.75069e-05
3.67054e-05
3.57936e-05
3.48867e-05
3.38998e-05
3.28162e-05
3.16854e-05
3.06192e-05
2.93966e-05
2.81207e-05
2.68496e-05
2.56964e-05
2.46107e-05
2.33033e-05
2.20419e-05
2.0765e-05
1.94438e-05
1.81737e-05
1.69026e-05
1.55976e-05
1.43643e-05
1.30639e-05
1.19269e-05
1.0585e-05
9.4623e-06
8.21729e-06
7.09211e-06
5.92075e-06
4.98247e-06
3.83479e-06
3.28943e-06
2.34018e-06
2.01228e-06
1.36903e-06
1.27396e-06
7.61857e-07
8.50698e-07
5.20267e-07
6.38187e-07
4.13354e-07
5.49234e-07
3.89968e-07
4.98517e-07
4.15911e-07
4.55618e-07
3.94368e-07
4.63775e-07
3.60331e-07
5.02635e-07
3.60267e-07
4.95809e-07
3.61992e-07
4.65046e-07
3.55885e-07
4.68551e-07
3.69279e-07
4.94737e-07
3.72229e-07
4.93067e-07
3.76806e-07
4.77613e-07
3.58361e-07
4.59461e-07
3.44853e-07
4.62614e-07
3.46194e-07
4.75259e-07
3.52057e-07
4.60422e-07
3.38442e-07
4.4766e-07
3.68258e-07
4.76691e-07
3.96827e-07
4.67429e-07
3.82423e-07
4.58454e-07
3.9211e-07
4.57853e-07
3.82925e-07
4.01214e-07
3.3819e-07
3.03072e-07
3.6058e-07
3.78969e-07
3.94249e-07
4.33325e-07
4.17584e-07
4.32739e-07
4.21205e-07
4.3357e-07
4.9198e-07
6.11473e-07
5.01786e-07
5.20141e-07
4.55335e-07
5.02065e-07
4.48737e-07
5.29291e-07
4.57533e-07
5.55831e-07
4.60992e-07
5.54539e-07
4.30387e-07
5.04742e-07
3.71021e-07
4.31777e-07
3.32475e-07
3.78584e-07
3.31617e-07
3.6385e-07
3.66426e-07
3.69575e-07
4.09927e-07
3.64497e-07
4.101e-07
3.87181e-07
4.40992e-07
4.57474e-07
4.28024e-07
4.82378e-07
3.65389e-07
4.74429e-07
2.85856e-07
4.15071e-07
3.15213e-07
4.06583e-07
3.4217e-07
4.137e-07
3.77294e-07
4.35569e-07
5.09702e-07
2.96377e-07
8.31893e-07
2.66795e-07
1.11569e-06
6.34975e-07
1.33777e-06
1.81022e-06
2.03996e-06
2.78153e-06
3.94061e-06
5.41767e-06
5.50271e-06
6.89461e-06
1.21842e-05
1.52504e-05