/*--------------------------------*- C++ -*----------------------------------*\
| =========                 |                                                 |
| \\      /  F ield         | OpenFOAM: The Open Source CFD Toolbox           |
|  \\    /   O peration     | Version:  v2006                                 |
|   \\  /    A nd           | Website:  www.openfoam.com                      |
|    \\/     M anipulation  |                                                 |
\*---------------------------------------------------------------------------*/
FoamFile
{
    version     2.0;
    format      ascii;
    class       volScalarField;
    location    "150";
    object      p;
}
// * * * * * * * * * * * * * * * * * * * * * * * * * * * * * * * * * * * * * //

dimensions      [1 -1 -2 0 0 0 0];


internalField   nonuniform List<scalar> 
93840
(
1.01901
1.00686
1.00488
0.997651
1.00965
0.993382
1.00384
0.990723
1.00729
0.996318
1.00871
1.00423
1.0184
1.01499
1.02832
1.02851
1.04084
1.04426
1.053
1.05725
1.06304
1.06795
1.07295
1.07413
1.07421
1.07645
1.07423
1.08106
1.07067
1.07383
1.07994
1.10715
1.073
1.08608
1.08347
1.09135
1.0895
1.09579
1.09511
1.09983
1.09884
1.10181
1.10192
1.10413
1.10441
1.10624
1.1072
1.10948
1.10962
1.11212
1.11388
1.11509
1.11535
1.11844
1.11939
1.12002
1.11929
1.11974
1.121
1.12294
1.12303
1.12336
1.12407
1.12435
1.12378
1.12459
1.12402
1.12344
1.12298
1.1227
1.12184
1.12118
1.1205
1.11927
1.11858
1.11738
1.11628
1.11464
1.11299
1.11093
1.10921
1.10734
1.10544
1.10308
1.10087
1.09858
1.09611
1.09367
1.09112
1.08835
1.08493
1.08112
1.07739
1.07327
1.06911
1.06445
1.05979
1.05494
1.04993
1.04443
1.03875
1.03304
1.02724
1.01733
1.00694
1.00298
0.999742
0.99184
0.983298
0.974828
0.966553
0.958284
0.950281
0.940276
0.931234
0.922195
0.914187
0.904659
0.897555
0.89057
0.886452
0.881175
0.880722
0.877623
0.882084
0.886396
0.889665
0.898079
0.90301
0.908526
0.919415
0.924718
0.934257
0.940017
0.946632
0.95577
0.962753
0.971682
0.976938
0.984742
0.98851
0.995554
1.00215
1.00943
1.01486
1.02217
1.02719
1.03346
1.03978
1.0474
1.05406
1.06109
1.06764
1.07544
1.08253
1.09017
1.09821
1.10656
1.11529
1.12408
1.13279
1.14069
1.14967
1.15972
1.17023
1.18175
1.19409
1.20649
1.21878
1.23196
1.24778
1.26494
1.28248
1.29956
1.31945
1.34088
1.364
1.3913
1.41613
1.44315
1.45951
1.46992
1.43475
1.35164
1.21331
1.06654
0.912066
0.812302
0.772326
0.780011
0.699332
0.637378
0.595536
0.568407
0.551199
0.536317
0.532568
0.516818
0.518669
0.51378
0.513973
0.515523
0.516581
0.516822
0.516947
0.518962
0.52058
0.521682
0.522341
0.522075
0.521982
0.522016
0.521909
0.520823
0.520962
0.521512
0.522531
0.522261
0.522897
0.521668
0.518844
0.51795
0.519104
0.519637
0.521746
0.52314
0.524231
0.525636
0.527965
0.530451
0.530162
0.526952
0.525514
0.523761
0.523572
0.525098
0.526522
0.528119
0.529862
0.531174
0.532322
0.532678
0.533834
0.536254
0.542942
0.558844
0.607935
0.674912
0.708262
0.711868
0.698173
0.699145
0.694203
0.695634
0.698293
0.70762
0.725019
0.746763
0.763509
0.774824
0.784172
0.792943
0.800868
0.808865
0.81654
0.824602
0.831444
0.839151
0.849602
0.859686
0.863297
0.866906
0.875127
0.885245
0.890847
0.894488
0.900038
0.907368
0.913986
0.919809
0.925638
0.931338
0.937018
0.942547
0.948055
0.953452
0.958361
0.963228
0.967819
0.972478
0.976884
0.981214
0.985492
0.989564
0.99366
0.997505
1.00132
1.00493
1.00856
1.0119
1.01523
1.01834
1.0214
1.02445
1.02723
1.03024
1.0326
1.03513
1.03734
1.0396
1.04186
1.04375
1.04609
1.04769
1.05007
1.05086
1.05339
1.05376
1.05676
1.0563
1.05941
1.05862
1.06226
1.06001
1.06451
1.0611
1.06615
1.06206
1.06724
1.0629
1.06879
1.06279
1.06894
1.06368
1.06817
1.06411
1.06702
1.06982
1.0653
1.07137
1.08146
1.07731
1.07904
1.07693
1.07773
1.07357
1.06862
1.06226
1.05707
1.05323
1.04457
1.04067
1.02794
1.02809
1.0146
1.01842
1.00394
1.00893
0.996333
1.00657
0.990839
1.00396
0.992858
1.00831
0.997522
1.00429
1.00613
1.01886
1.01892
1.00581
1.00431
0.997664
1.0083
0.992904
1.00388
0.990793
1.00665
0.996258
1.00888
1.00403
1.01855
1.01451
1.02818
1.028
1.04074
1.04527
1.05298
1.05722
1.06229
1.06865
1.07337
1.07713
1.07674
1.07857
1.0771
1.07941
1.07305
1.07213
1.07331
1.07538
1.07723
1.08418
1.08346
1.09019
1.08911
1.09493
1.09457
1.09875
1.09819
1.10105
1.10128
1.10367
1.10384
1.1058
1.10649
1.10898
1.10904
1.11154
1.11336
1.1148
1.11489
1.11753
1.11868
1.11974
1.11926
1.11954
1.12047
1.12242
1.12266
1.12295
1.12356
1.12398
1.12348
1.12422
1.1237
1.12319
1.12271
1.12243
1.12159
1.12089
1.12028
1.11908
1.11835
1.11719
1.11609
1.11445
1.11284
1.11079
1.10906
1.10717
1.10528
1.10294
1.10076
1.09847
1.09601
1.09356
1.091
1.08821
1.08482
1.08104
1.07732
1.0732
1.06905
1.06441
1.05976
1.0549
1.04989
1.04441
1.03876
1.03301
1.02716
1.01743
1.00726
1.00315
0.999678
0.991851
0.98344
0.975016
0.966776
0.958525
0.950529
0.940596
0.931643
0.922642
0.914648
0.905234
0.898205
0.891277
0.887145
0.882008
0.881547
0.878533
0.883034
0.88703
0.890602
0.898648
0.90385
0.909276
0.920168
0.925357
0.9348
0.940734
0.947202
0.956492
0.963119
0.972183
0.977319
0.985294
0.989129
0.9962
1.00271
1.00996
1.01553
1.02272
1.02801
1.03431
1.04059
1.04826
1.05491
1.06203
1.06864
1.07643
1.08377
1.09133
1.09964
1.10814
1.11681
1.12554
1.13439
1.14258
1.15186
1.16214
1.17314
1.18464
1.19708
1.20948
1.22275
1.23653
1.25284
1.27021
1.28829
1.30595
1.32513
1.34601
1.36584
1.38773
1.41082
1.42524
1.42832
1.44732
1.4222
1.3665
1.27368
1.16017
1.03097
0.922353
0.853224
0.825002
0.745678
0.689379
0.640077
0.603114
0.576238
0.555366
0.548424
0.531398
0.529952
0.522897
0.521558
0.522362
0.521665
0.520434
0.521287
0.522719
0.523992
0.524696
0.525181
0.525008
0.524153
0.524115
0.52368
0.52202
0.52281
0.523427
0.523833
0.523601
0.524293
0.523206
0.519907
0.519275
0.520012
0.52039
0.52244
0.523633
0.52488
0.526045
0.528485
0.530971
0.530867
0.527788
0.526273
0.524418
0.524143
0.525555
0.526938
0.528508
0.530256
0.531583
0.532733
0.533094
0.534234
0.536664
0.543209
0.558976
0.608406
0.67551
0.708493
0.712102
0.698376
0.699273
0.694436
0.695924
0.69857
0.707909
0.72536
0.747086
0.76381
0.775065
0.784397
0.79316
0.801079
0.809067
0.816719
0.824774
0.831689
0.839439
0.849703
0.859617
0.863399
0.867235
0.875335
0.885201
0.890839
0.894669
0.900258
0.907485
0.914059
0.919905
0.925747
0.931448
0.937127
0.942656
0.948147
0.953528
0.958441
0.963315
0.967908
0.972563
0.976966
0.981295
0.985571
0.989642
0.993739
0.997583
1.0014
1.00501
1.00863
1.01197
1.0153
1.01842
1.0215
1.02454
1.02732
1.0303
1.03267
1.03519
1.03741
1.03968
1.04193
1.04382
1.04614
1.04774
1.05013
1.05093
1.05349
1.05382
1.05684
1.0563
1.0594
1.05853
1.06218
1.05987
1.0644
1.06092
1.06648
1.06197
1.06742
1.06273
1.06813
1.063
1.07005
1.06353
1.07071
1.06187
1.08017
1.07097
1.06821
1.06898
1.07985
1.07222
1.07577
1.07334
1.07396
1.07252
1.06765
1.06293
1.05711
1.05288
1.04419
1.04053
1.02835
1.02828
1.01504
1.01827
1.00425
1.00866
0.996248
1.00726
0.990745
1.00384
0.993374
1.00966
0.997598
1.0048
1.00687
1.01898
1.01904
1.00697
1.0049
0.997605
1.00962
0.993368
1.00384
0.990792
1.00733
0.996334
1.00868
1.00423
1.01837
1.01497
1.02848
1.02872
1.04063
1.04501
1.05279
1.05764
1.06298
1.06827
1.07317
1.07421
1.075
1.07685
1.07569
1.0808
1.07697
1.07991
1.0841
1.08826
1.07681
1.09107
1.0833
1.09274
1.08906
1.0957
1.09444
1.09874
1.09803
1.10078
1.10112
1.10336
1.10378
1.10567
1.10622
1.10884
1.10887
1.11124
1.11323
1.11455
1.11472
1.11723
1.11842
1.11945
1.11906
1.11932
1.12027
1.1222
1.12248
1.12273
1.12334
1.12373
1.12333
1.12403
1.12352
1.123
1.12251
1.12221
1.12147
1.12079
1.12011
1.11893
1.11824
1.11706
1.11597
1.11433
1.11273
1.11069
1.10896
1.10707
1.10517
1.10285
1.10067
1.09838
1.09593
1.09349
1.09092
1.08813
1.08475
1.08098
1.07726
1.07315
1.069
1.06437
1.05973
1.05488
1.04987
1.0444
1.03875
1.033
1.02713
1.01746
1.0074
1.00324
0.999685
0.991869
0.983514
0.975119
0.96691
0.958682
0.950678
0.94079
0.931872
0.922897
0.91493
0.905571
0.898646
0.891724
0.887608
0.882403
0.882034
0.879246
0.883635
0.887791
0.891265
0.899289
0.904283
0.909827
0.920497
0.925743
0.935223
0.940866
0.947791
0.956545
0.963796
0.972514
0.977931
0.985597
0.989492
0.996615
1.00307
1.01045
1.0158
1.02325
1.02838
1.03478
1.04116
1.04867
1.05555
1.06259
1.06935
1.07713
1.08423
1.0922
1.10028
1.10859
1.11742
1.12621
1.13523
1.14388
1.15305
1.16326
1.17373
1.18548
1.1979
1.21072
1.22344
1.23739
1.25286
1.27
1.28778
1.30525
1.32536
1.34639
1.37017
1.39215
1.41711
1.43673
1.4443
1.46192
1.42653
1.37081
1.2738
1.16311
1.03007
0.927842
0.858791
0.835295
0.760913
0.701748
0.647443
0.61292
0.586874
0.565328
0.555805
0.537325
0.535997
0.528032
0.524547
0.524585
0.524803
0.52454
0.523559
0.524605
0.525175
0.52611
0.52693
0.526627
0.525363
0.525647
0.525615
0.52396
0.523444
0.523375
0.524769
0.524676
0.524784
0.523876
0.521251
0.519244
0.520157
0.520879
0.522899
0.52389
0.525193
0.526733
0.528692
0.53129
0.531356
0.528061
0.526689
0.524813
0.524411
0.525798
0.527194
0.528756
0.530504
0.531858
0.533024
0.533408
0.534497
0.536952
0.543396
0.558824
0.608095
0.675808
0.709181
0.712648
0.698618
0.699464
0.694614
0.696067
0.698712
0.707964
0.72548
0.747401
0.764084
0.775305
0.784594
0.793333
0.801246
0.80922
0.816856
0.8249
0.831836
0.839589
0.849778
0.859642
0.863502
0.867382
0.875431
0.885242
0.890886
0.894767
0.900357
0.907553
0.914118
0.919969
0.925811
0.93151
0.937188
0.942713
0.948197
0.953569
0.958483
0.963354
0.967948
0.9726
0.977005
0.981334
0.985607
0.989677
0.993767
0.997613
1.00143
1.00504
1.00866
1.01199
1.01532
1.01845
1.02153
1.02458
1.02735
1.03032
1.03269
1.03521
1.03743
1.03969
1.04194
1.04383
1.04614
1.04773
1.05012
1.05095
1.05349
1.05383
1.0568
1.05627
1.05938
1.05848
1.06208
1.0599
1.06426
1.06103
1.06622
1.06185
1.06745
1.06324
1.0676
1.06404
1.07036
1.06485
1.07002
1.06778
1.07693
1.07081
1.07248
1.0749
1.08091
1.07589
1.07945
1.07651
1.07816
1.07362
1.06861
1.06214
1.05689
1.05326
1.04473
1.04051
1.02809
1.02814
1.01436
1.01835
1.00398
1.00893
0.996226
1.00653
0.990826
1.00387
0.992864
1.00833
0.997621
1.00427
1.00643
1.01888
1.01901
1.00567
1.00435
0.997685
1.00832
0.99306
1.00375
0.990244
1.00667
0.996174
1.00882
1.00404
1.01852
1.01459
1.02819
1.02813
1.04056
1.04523
1.0528
1.05745
1.06227
1.06888
1.07336
1.07693
1.07695
1.07888
1.07757
1.07981
1.07575
1.07619
1.07411
1.08278
1.079
1.08561
1.08431
1.09022
1.08944
1.09447
1.09408
1.09806
1.09734
1.10038
1.10037
1.10296
1.10312
1.10555
1.10553
1.10836
1.1084
1.1107
1.11272
1.11435
1.11434
1.11659
1.11781
1.11912
1.11889
1.11906
1.11985
1.12178
1.12207
1.12232
1.12292
1.12342
1.12303
1.1237
1.12323
1.12275
1.12227
1.12193
1.12124
1.1205
1.11992
1.11874
1.11803
1.11688
1.11578
1.11415
1.11258
1.11055
1.10881
1.10692
1.10502
1.10272
1.10056
1.09827
1.09583
1.09338
1.09081
1.08801
1.08465
1.08091
1.07719
1.0731
1.06895
1.06433
1.0597
1.05485
1.04985
1.0444
1.03876
1.033
1.02709
1.01756
1.00767
1.00341
0.999647
0.99191
0.983669
0.975319
0.967142
0.958936
0.950952
0.941105
0.932276
0.923339
0.915375
0.906155
0.899267
0.892427
0.888205
0.883227
0.882725
0.879836
0.884522
0.887914
0.892027
0.899525
0.905051
0.910255
0.921319
0.926162
0.935633
0.941712
0.948068
0.95745
0.963727
0.97294
0.977939
0.98611
0.989959
0.9972
1.00346
1.01086
1.01641
1.02352
1.0291
1.03547
1.0417
1.04941
1.05615
1.06326
1.07001
1.0777
1.08537
1.09285
1.1014
1.10992
1.1187
1.12747
1.13631
1.14485
1.15428
1.16488
1.17604
1.18753
1.20004
1.21243
1.22624
1.24031
1.2565
1.27369
1.29126
1.30912
1.32834
1.34935
1.36999
1.39461
1.41161
1.43106
1.44284
1.44794
1.42255
1.38131
1.29755
1.20417
1.09022
0.990713
0.911359
0.868818
0.79214
0.735052
0.679464
0.639886
0.606468
0.578026
0.5685
0.54883
0.543191
0.536013
0.530638
0.530962
0.528385
0.527969
0.527483
0.527327
0.528022
0.528683
0.528852
0.528838
0.526873
0.527286
0.526996
0.525376
0.525374
0.525504
0.525946
0.525824
0.526294
0.525377
0.522612
0.520839
0.521372
0.521719
0.523623
0.524424
0.525942
0.526979
0.529328
0.531822
0.532051
0.529134
0.527499
0.525524
0.525053
0.526283
0.527609
0.529157
0.530932
0.532286
0.533496
0.533815
0.534964
0.53728
0.543596
0.55885
0.608269
0.676632
0.70973
0.713019
0.698817
0.699522
0.694834
0.696363
0.698925
0.708219
0.725861
0.747705
0.764477
0.775584
0.784843
0.793576
0.801477
0.80944
0.817051
0.825093
0.83208
0.839866
0.849907
0.859649
0.863614
0.867676
0.875647
0.885232
0.89092
0.894936
0.900557
0.907681
0.914208
0.920073
0.925926
0.931624
0.937301
0.942827
0.948299
0.953659
0.958575
0.963456
0.968049
0.972695
0.977095
0.98142
0.985688
0.989758
0.993847
0.997695
1.00152
1.00513
1.00874
1.01207
1.0154
1.01854
1.02162
1.02467
1.02743
1.03038
1.03276
1.03528
1.0375
1.03975
1.042
1.04389
1.04619
1.04777
1.05016
1.05101
1.05354
1.05388
1.05679
1.05631
1.05935
1.05845
1.06195
1.05982
1.06407
1.06076
1.06599
1.06183
1.06746
1.06294
1.06914
1.06291
1.07105
1.06371
1.0722
1.06559
1.07527
1.06829
1.07566
1.0702
1.07943
1.07077
1.07644
1.0725
1.07406
1.07222
1.06766
1.06274
1.05706
1.05276
1.04385
1.0404
1.02811
1.02823
1.01495
1.0182
1.00419
1.00847
0.996289
1.00723
0.99073
1.00379
0.99334
1.00969
0.997524
1.00471
1.00694
1.01895
1.01913
1.00702
1.00494
0.997651
1.00962
0.993323
1.00389
0.991145
1.00734
0.996315
1.00866
1.00421
1.01857
1.01497
1.02868
1.02859
1.04053
1.0452
1.05272
1.05775
1.06299
1.06845
1.07332
1.07432
1.07554
1.07716
1.07663
1.08111
1.07941
1.08299
1.08189
1.0867
1.08167
1.08971
1.08505
1.0926
1.08966
1.09545
1.09392
1.09834
1.09709
1.10033
1.10015
1.10267
1.10325
1.10521
1.1053
1.10823
1.10837
1.11034
1.11254
1.11399
1.11425
1.11623
1.11752
1.11866
1.11867
1.11873
1.11968
1.12147
1.12187
1.122
1.12268
1.12311
1.12279
1.12341
1.12296
1.12253
1.12199
1.12172
1.12104
1.1203
1.1197
1.11857
1.11784
1.1167
1.1156
1.11399
1.11241
1.1104
1.10867
1.10678
1.10488
1.10259
1.10044
1.09815
1.09572
1.09327
1.0907
1.0879
1.08454
1.08081
1.0771
1.07301
1.06887
1.06427
1.05965
1.0548
1.04981
1.04436
1.03874
1.03297
1.02704
1.01758
1.00785
1.00354
0.99967
0.991929
0.983764
0.975455
0.967322
0.959147
0.951144
0.941378
0.932596
0.9237
0.91578
0.906598
0.899865
0.892987
0.888852
0.883719
0.883412
0.880948
0.885356
0.88919
0.892957
0.900605
0.905668
0.911205
0.921675
0.926857
0.936254
0.941841
0.948946
0.957439
0.964758
0.973389
0.978893
0.986518
0.990505
0.997682
1.00403
1.01142
1.01679
1.02416
1.02959
1.036
1.0424
1.0498
1.05688
1.06391
1.07085
1.07856
1.08569
1.09385
1.10203
1.11037
1.11927
1.128
1.13704
1.14618
1.15562
1.16584
1.17643
1.18807
1.20064
1.21357
1.22658
1.24081
1.25607
1.27293
1.29048
1.30804
1.32766
1.34781
1.37003
1.3899
1.41158
1.4298
1.43525
1.44288
1.41222
1.36834
1.28953
1.19896
1.08523
0.991374
0.911709
0.875193
0.80274
0.743845
0.688366
0.647545
0.617012
0.59116
0.574386
0.556325
0.551211
0.539905
0.534093
0.53491
0.532954
0.530281
0.529827
0.530521
0.530364
0.530961
0.530707
0.530461
0.529669
0.528847
0.52817
0.526268
0.526677
0.526495
0.527175
0.526792
0.526945
0.526565
0.523226
0.521611
0.521911
0.522292
0.52406
0.525015
0.526253
0.527737
0.529654
0.532281
0.532666
0.529397
0.528121
0.526003
0.525412
0.526638
0.527973
0.529497
0.531275
0.532683
0.533858
0.53427
0.53529
0.537722
0.543622
0.558531
0.608055
0.67739
0.710644
0.713953
0.699163
0.699753
0.69507
0.696534
0.699136
0.708273
0.725949
0.748211
0.76486
0.775935
0.785133
0.793829
0.801728
0.809674
0.817258
0.82527
0.832283
0.840064
0.850014
0.859688
0.863787
0.867882
0.875758
0.88531
0.89099
0.895065
0.90068
0.907762
0.914282
0.920151
0.926002
0.931701
0.937375
0.942893
0.948353
0.9537
0.958618
0.963489
0.968084
0.972726
0.977128
0.981454
0.98572
0.989787
0.993866
0.997711
1.00153
1.00513
1.00874
1.01207
1.01539
1.01854
1.02162
1.02468
1.02743
1.03037
1.03275
1.03527
1.03749
1.03973
1.04197
1.04386
1.04615
1.04772
1.0501
1.05099
1.05348
1.05384
1.05669
1.05626
1.05926
1.05835
1.06186
1.05977
1.06391
1.06102
1.06561
1.06181
1.06744
1.06279
1.06819
1.06431
1.07018
1.06589
1.07166
1.06763
1.07478
1.07036
1.07352
1.07502
1.07755
1.07381
1.07921
1.07545
1.07829
1.07342
1.0684
1.06201
1.05685
1.05296
1.0443
1.04029
1.02786
1.02807
1.01447
1.01829
1.00396
1.00885
0.996174
1.00649
0.990847
1.00388
0.992857
1.00835
0.997481
1.00424
1.00652
1.01884
1.01898
1.00558
1.00435
0.997573
1.00835
0.99309
1.00377
0.990247
1.00672
0.996129
1.00892
1.00407
1.01835
1.01451
1.02824
1.02814
1.04053
1.04501
1.05291
1.05755
1.06229
1.06908
1.0733
1.07684
1.07703
1.07909
1.07774
1.08006
1.07772
1.0794
1.07743
1.08369
1.08128
1.08679
1.08543
1.09072
1.08987
1.09418
1.09374
1.09735
1.09662
1.09959
1.09944
1.10214
1.10263
1.10477
1.10477
1.10766
1.10787
1.10994
1.11192
1.11373
1.11388
1.11571
1.1168
1.11828
1.11819
1.11836
1.11929
1.12105
1.1214
1.12162
1.12222
1.12276
1.12243
1.12302
1.12262
1.1222
1.12172
1.12133
1.12079
1.12002
1.11943
1.11829
1.11762
1.11644
1.11536
1.11375
1.11221
1.11022
1.10848
1.10659
1.10469
1.10243
1.10029
1.098
1.09558
1.09313
1.09054
1.08773
1.08441
1.08071
1.07701
1.07293
1.0688
1.06421
1.05959
1.05475
1.04976
1.04435
1.03875
1.03298
1.02701
1.01767
1.00812
1.00373
0.999629
0.991981
0.983941
0.975685
0.967595
0.95945
0.95148
0.941738
0.933069
0.92422
0.916289
0.907288
0.900562
0.893817
0.889497
0.884721
0.884233
0.881403
0.886245
0.889203
0.893606
0.900741
0.906423
0.911439
0.922671
0.927166
0.936598
0.942853
0.949092
0.958536
0.964565
0.973871
0.978754
0.987053
0.990954
0.99834
1.00436
1.01195
1.01737
1.02451
1.03021
1.03668
1.04294
1.05059
1.05756
1.06462
1.07154
1.07916
1.08701
1.09443
1.10314
1.11161
1.12058
1.12939
1.1383
1.14709
1.15666
1.16757
1.17869
1.19027
1.20275
1.21524
1.22911
1.24332
1.25922
1.27614
1.29318
1.31082
1.32941
1.34951
1.36843
1.39046
1.40546
1.42238
1.42888
1.43734
1.40894
1.37479
1.30721
1.23028
1.13117
1.03794
0.959191
0.906591
0.833329
0.776171
0.717808
0.674986
0.63924
0.601039
0.589677
0.567446
0.558188
0.548076
0.539264
0.537423
0.536627
0.535222
0.532226
0.5327
0.532903
0.533584
0.532686
0.532237
0.531301
0.530833
0.530597
0.528951
0.52715
0.52749
0.528656
0.528295
0.528605
0.527932
0.52626
0.522641
0.522842
0.523193
0.524845
0.525718
0.527036
0.528266
0.530413
0.532748
0.533474
0.530858
0.529041
0.526944
0.526184
0.527217
0.528482
0.530016
0.531822
0.533207
0.534461
0.534754
0.535911
0.53807
0.543828
0.558188
0.60793
0.678508
0.711879
0.714678
0.699495
0.699908
0.695423
0.696945
0.699343
0.708526
0.726432
0.748548
0.765429
0.776332
0.785473
0.794148
0.802023
0.809956
0.817516
0.825541
0.832592
0.840387
0.850173
0.859766
0.863943
0.868199
0.876003
0.885318
0.891083
0.895268
0.900899
0.907915
0.914397
0.920273
0.92613
0.931821
0.937492
0.943011
0.94846
0.953798
0.958717
0.9636
0.968191
0.972822
0.977217
0.981533
0.985788
0.989856
0.993929
0.997778
1.0016
1.00521
1.00881
1.01214
1.01546
1.0186
1.02167
1.02473
1.02749
1.0304
1.03279
1.0353
1.03753
1.03976
1.042
1.04389
1.04616
1.04771
1.0501
1.051
1.0535
1.05384
1.05665
1.05625
1.05916
1.05833
1.06167
1.05976
1.06381
1.06082
1.06578
1.06164
1.0672
1.06305
1.06829
1.06377
1.07115
1.0652
1.07185
1.06606
1.07501
1.06886
1.07656
1.07151
1.0779
1.07249
1.0772
1.07185
1.0741
1.07179
1.06773
1.06253
1.05711
1.05233
1.04386
1.04013
1.02814
1.0285
1.0148
1.0181
1.00405
1.00846
0.996286
1.00727
0.990776
1.00373
0.993276
1.00968
0.997559
1.00463
1.00714
1.0189
1.01917
1.00705
1.00493
0.997659
1.0096
0.993339
1.00405
0.991141
1.0074
0.99628
1.00865
1.00429
1.01887
1.01493
1.02877
1.0285
1.04077
1.04544
1.05244
1.05793
1.06307
1.06861
1.07343
1.07448
1.076
1.07752
1.07753
1.08191
1.08076
1.08392
1.08166
1.08644
1.0837
1.08931
1.08664
1.09242
1.09029
1.09522
1.0936
1.09755
1.09653
1.09946
1.09929
1.10189
1.10266
1.1044
1.10463
1.1075
1.1079
1.10966
1.11165
1.11332
1.11384
1.11527
1.11647
1.11759
1.11794
1.11799
1.1191
1.12064
1.12119
1.12121
1.12199
1.1224
1.12205
1.12265
1.12225
1.12195
1.12139
1.12113
1.12046
1.11972
1.11918
1.11809
1.11734
1.11623
1.11514
1.11354
1.112
1.11002
1.10829
1.1064
1.10451
1.10225
1.10012
1.09784
1.09543
1.09298
1.0904
1.08759
1.08427
1.08058
1.07688
1.07281
1.06869
1.06413
1.05953
1.0547
1.04971
1.04429
1.03872
1.03294
1.02695
1.0177
1.00835
1.00389
0.999675
0.992011
0.984062
0.975855
0.967817
0.959711
0.951709
0.942085
0.933475
0.924691
0.916817
0.907817
0.901269
0.894434
0.890281
0.885283
0.885015
0.882802
0.887222
0.890785
0.89475
0.902102
0.907199
0.912762
0.92298
0.928111
0.937422
0.942946
0.950181
0.958488
0.965685
0.974348
0.979812
0.987501
0.99156
0.998746
1.0051
1.0123
1.01785
1.02503
1.03078
1.03723
1.04366
1.05098
1.05818
1.06524
1.07239
1.08001
1.08728
1.09551
1.10383
1.11228
1.12118
1.12991
1.13878
1.14832
1.15809
1.16828
1.17915
1.19049
1.2031
1.21606
1.22922
1.24365
1.25871
1.27503
1.29189
1.30932
1.32799
1.34707
1.36724
1.38532
1.40358
1.41894
1.42064
1.42863
1.39789
1.36083
1.29317
1.22105
1.12221
1.0368
0.955767
0.91004
0.841127
0.783074
0.724746
0.682145
0.645275
0.614817
0.595257
0.574158
0.566539
0.553051
0.545238
0.543617
0.540288
0.53922
0.536196
0.534156
0.535547
0.535474
0.535387
0.534666
0.533229
0.532134
0.531578
0.530297
0.529617
0.529024
0.529504
0.529383
0.529875
0.528809
0.525586
0.524265
0.524193
0.524047
0.525252
0.526276
0.527706
0.528638
0.53092
0.533257
0.534089
0.531069
0.529828
0.527543
0.52672
0.527699
0.528953
0.530436
0.532247
0.533673
0.534858
0.535315
0.536277
0.538621
0.543814
0.557737
0.607697
0.679908
0.71299
0.715825
0.699909
0.700125
0.695711
0.697158
0.699643
0.708587
0.726503
0.749273
0.765946
0.776804
0.785865
0.794484
0.802369
0.810284
0.817807
0.825776
0.832859
0.840646
0.850328
0.859821
0.864192
0.868471
0.87614
0.885453
0.891177
0.895429
0.901052
0.908019
0.914494
0.920373
0.926226
0.931921
0.937586
0.943095
0.948531
0.953851
0.958769
0.963633
0.968229
0.972856
0.977254
0.981575
0.985827
0.989889
0.993949
0.997794
1.0016
1.00521
1.00879
1.01212
1.01543
1.01859
1.02166
1.02473
1.02748
1.03039
1.03277
1.03528
1.0375
1.03971
1.04193
1.04383
1.04608
1.04764
1.04999
1.05095
1.05341
1.05377
1.05653
1.05618
1.05906
1.05824
1.06156
1.05971
1.06368
1.06088
1.06528
1.06196
1.06677
1.06315
1.06819
1.06455
1.06979
1.06627
1.07123
1.06765
1.07338
1.07005
1.07446
1.07363
1.07717
1.07312
1.07862
1.07313
1.07822
1.07305
1.06818
1.06188
1.05679
1.05288
1.04445
1.03999
1.02795
1.02805
1.0145
1.01826
1.00396
1.00885
0.996191
1.00645
0.990921
1.00386
0.992857
1.00835
0.997579
1.0042
1.00672
1.01887
1.01905
1.00559
1.00435
0.997469
1.00838
0.993073
1.0038
0.990203
1.00679
0.996071
1.00897
1.00404
1.01841
1.01439
1.02832
1.02833
1.04084
1.04506
1.05311
1.05774
1.0624
1.06917
1.07339
1.0768
1.07723
1.07949
1.07828
1.08082
1.07882
1.08115
1.07992
1.08476
1.08326
1.08762
1.08685
1.09088
1.0905
1.09384
1.09343
1.09649
1.09608
1.09868
1.09846
1.10145
1.10187
1.10378
1.1041
1.10708
1.10744
1.1094
1.11102
1.11281
1.11338
1.11497
1.11561
1.11716
1.11717
1.11765
1.11865
1.12022
1.12069
1.12081
1.12147
1.12197
1.12169
1.12216
1.12185
1.12154
1.12105
1.12071
1.1202
1.11938
1.11882
1.11778
1.11706
1.11591
1.11484
1.11326
1.11174
1.10979
1.10806
1.10617
1.10428
1.10204
1.09993
1.09765
1.09524
1.0928
1.0902
1.08739
1.0841
1.08045
1.07676
1.07272
1.0686
1.06405
1.05944
1.05462
1.04964
1.04427
1.03871
1.03295
1.02692
1.01778
1.00861
1.00411
0.999634
0.992074
0.984263
0.976115
0.968125
0.960055
0.952104
0.942492
0.93402
0.925274
0.917376
0.908578
0.901979
0.895356
0.890947
0.886442
0.88592
0.883164
0.888029
0.890933
0.895153
0.902244
0.907809
0.912819
0.924034
0.928356
0.93756
0.944059
0.950092
0.959671
0.965485
0.974911
0.979625
0.988068
0.992043
0.999452
1.00534
1.01304
1.01836
1.02563
1.03124
1.03788
1.04427
1.05175
1.05908
1.06608
1.07313
1.08089
1.08873
1.09621
1.1049
1.11329
1.12244
1.13124
1.14037
1.14916
1.15895
1.17002
1.1811
1.19277
1.20522
1.21792
1.23146
1.24578
1.26118
1.27738
1.29396
1.31098
1.32861
1.34761
1.36474
1.38388
1.39704
1.41134
1.41305
1.42184
1.39114
1.36594
1.30877
1.24167
1.15915
1.07552
0.997366
0.938656
0.86995
0.812967
0.754172
0.708937
0.669019
0.627758
0.61045
0.585721
0.574759
0.560633
0.553415
0.548315
0.542645
0.541737
0.540912
0.538723
0.537353
0.537251
0.537169
0.537242
0.535684
0.535148
0.533512
0.531474
0.531108
0.530975
0.531171
0.53065
0.530917
0.530419
0.528506
0.524498
0.524628
0.524863
0.526178
0.527023
0.528267
0.5293
0.531369
0.53388
0.53507
0.532792
0.530752
0.528548
0.527462
0.528347
0.529525
0.530999
0.53285
0.534258
0.535531
0.535862
0.537013
0.539033
0.543906
0.557274
0.607441
0.681845
0.714368
0.716825
0.700366
0.700424
0.696187
0.697666
0.699842
0.708869
0.727083
0.749654
0.766727
0.777336
0.786299
0.794878
0.802728
0.810635
0.818141
0.826135
0.833243
0.841026
0.850525
0.859979
0.864394
0.868825
0.876416
0.88548
0.891337
0.895669
0.901294
0.908201
0.914637
0.920517
0.926369
0.932049
0.937709
0.943216
0.948643
0.953957
0.958876
0.963757
0.968344
0.972956
0.977341
0.981645
0.985882
0.989944
0.993997
0.997846
1.00167
1.00528
1.00886
1.01218
1.01548
1.01863
1.02168
1.02475
1.0275
1.03038
1.03278
1.03528
1.03751
1.03971
1.04192
1.04382
1.04605
1.0476
1.04994
1.05092
1.05336
1.05375
1.05644
1.05615
1.05894
1.05822
1.06128
1.05978
1.06332
1.06094
1.06525
1.06174
1.0671
1.06293
1.06847
1.06434
1.0704
1.06574
1.07216
1.06715
1.07375
1.06888
1.0756
1.07144
1.07713
1.07181
1.07762
1.07349
1.07361
1.07126
1.0678
1.06233
1.05707
1.05202
1.04366
1.04027
1.02807
1.02861
1.0147
1.0182
1.004
1.00846
0.996209
1.00722
0.990869
1.00372
0.993293
1.00972
0.99749
1.00458
1.0073
1.01883
1.01923
1.00707
1.00495
0.997558
1.00962
0.993362
1.0041
0.991031
1.00737
0.996252
1.00864
1.00433
1.01897
1.01501
1.02887
1.02839
1.04108
1.04535
1.05251
1.05813
1.06319
1.06889
1.07334
1.07465
1.07636
1.07788
1.07821
1.08258
1.08092
1.08434
1.08243
1.08692
1.08486
1.08964
1.08789
1.09242
1.09056
1.09475
1.09332
1.09673
1.09595
1.0986
1.09824
1.10125
1.10164
1.1036
1.10409
1.10682
1.10747
1.10923
1.11076
1.11233
1.11334
1.11448
1.11517
1.11627
1.11681
1.11726
1.11837
1.11974
1.12035
1.12043
1.12114
1.12153
1.12125
1.12174
1.12143
1.12121
1.12068
1.12036
1.1198
1.11906
1.11851
1.11748
1.11675
1.11562
1.11457
1.11298
1.11147
1.10954
1.10782
1.10593
1.10404
1.10182
1.09971
1.09744
1.09505
1.09261
1.09003
1.08721
1.08392
1.08028
1.0766
1.07255
1.06845
1.06394
1.05936
1.05455
1.04958
1.0442
1.03867
1.03291
1.02685
1.01781
1.00888
1.0043
0.999706
0.992124
0.984413
0.976319
0.968387
0.960363
0.952366
0.942928
0.934506
0.925863
0.917936
0.909322
0.90258
0.896202
0.891563
0.887538
0.886533
0.884623
0.888976
0.892528
0.896501
0.903626
0.908766
0.914386
0.924312
0.929429
0.938686
0.944079
0.951505
0.959586
0.966687
0.975391
0.980733
0.988524
0.99264
0.999782
1.00628
1.0132
1.01898
1.02603
1.03186
1.03857
1.04495
1.05229
1.05948
1.06661
1.0739
1.08143
1.08895
1.09717
1.10557
1.11421
1.12305
1.13185
1.14043
1.15033
1.16034
1.1706
1.1816
1.19283
1.2052
1.21814
1.23115
1.24588
1.2606
1.27629
1.29212
1.30909
1.32664
1.34442
1.36252
1.3787
1.3941
1.40679
1.40596
1.41286
1.38256
1.35028
1.2931
1.23089
1.14658
1.07136
0.992687
0.939842
0.874607
0.81755
0.758707
0.713206
0.676086
0.639098
0.616505
0.594898
0.583119
0.565932
0.557281
0.553807
0.548431
0.544701
0.54414
0.542021
0.541342
0.540043
0.539013
0.537548
0.537526
0.53699
0.536268
0.533145
0.532166
0.531898
0.532043
0.532047
0.532239
0.531431
0.529005
0.527006
0.525785
0.52592
0.526824
0.52774
0.528849
0.530003
0.531677
0.534753
0.53563
0.532942
0.531657
0.529278
0.527935
0.529021
0.529788
0.531676
0.533073
0.534939
0.535924
0.536475
0.53744
0.539313
0.54416
0.55645
0.60714
0.683729
0.715677
0.717993
0.700753
0.700602
0.696562
0.697961
0.700246
0.708913
0.727216
0.750577
0.767358
0.77797
0.786792
0.795301
0.803167
0.811055
0.818519
0.826435
0.833583
0.841355
0.850728
0.860047
0.86472
0.869162
0.87659
0.885686
0.891461
0.895864
0.901479
0.908332
0.914764
0.920642
0.926489
0.932176
0.937827
0.943322
0.948735
0.954023
0.958938
0.96379
0.968386
0.972994
0.977383
0.981697
0.98593
0.989984
0.99402
0.997861
1.00165
1.00526
1.00882
1.01215
1.01544
1.0186
1.02166
1.02474
1.02747
1.03036
1.03274
1.03524
1.03745
1.03963
1.04182
1.04372
1.04592
1.04749
1.04979
1.05085
1.05322
1.05368
1.05627
1.05608
1.0588
1.05811
1.06116
1.05968
1.06324
1.06097
1.06495
1.06205
1.06644
1.06315
1.06783
1.06473
1.06959
1.06658
1.07107
1.06854
1.07242
1.07019
1.07383
1.07269
1.07648
1.07293
1.07811
1.07291
1.07544
1.07288
1.06814
1.06147
1.05688
1.05244
1.04451
1.04027
1.02791
1.02803
1.01445
1.01814
1.00401
1.00891
0.996263
1.00641
0.990975
1.0039
0.99271
1.00833
0.997609
1.00416
1.00692
1.019
1.0191
1.00555
1.00431
0.997592
1.00838
0.992971
1.0038
0.990188
1.00681
0.996093
1.00904
1.00404
1.01834
1.01436
1.02823
1.02803
1.04127
1.04517
1.05337
1.05774
1.06274
1.06921
1.07347
1.07675
1.07744
1.07963
1.07909
1.08177
1.08003
1.08234
1.08113
1.08542
1.08481
1.08851
1.08816
1.09117
1.09051
1.09361
1.09293
1.09571
1.09542
1.09795
1.09752
1.10074
1.10082
1.10289
1.10369
1.10649
1.10695
1.10916
1.10994
1.11175
1.11272
1.11433
1.11419
1.11563
1.11611
1.11695
1.11777
1.11928
1.11976
1.11989
1.12066
1.12102
1.12084
1.12117
1.12095
1.12073
1.12027
1.11995
1.11945
1.11858
1.11813
1.11713
1.11636
1.11526
1.11419
1.11264
1.11115
1.10926
1.10754
1.10565
1.10377
1.10157
1.09947
1.0972
1.09482
1.09237
1.08978
1.08695
1.08371
1.08011
1.07645
1.07244
1.06834
1.06383
1.05925
1.05445
1.04949
1.04417
1.03865
1.03293
1.02685
1.01789
1.00913
1.00455
0.999679
0.992202
0.984649
0.976615
0.968732
0.960765
0.952794
0.943452
0.935073
0.926548
0.918582
0.910079
0.903327
0.897054
0.89234
0.888655
0.887261
0.88504
0.889864
0.892752
0.896763
0.9038
0.909239
0.914324
0.925359
0.929695
0.938539
0.945317
0.951095
0.960832
0.966428
0.975979
0.980522
0.98911
0.993234
1.00052
1.00649
1.01406
1.01952
1.0268
1.03235
1.03914
1.04562
1.05291
1.06057
1.06753
1.07471
1.08267
1.0904
1.09792
1.10658
1.11491
1.12417
1.13296
1.14232
1.15107
1.16115
1.17216
1.18318
1.19489
1.2073
1.22017
1.23323
1.24758
1.26234
1.2775
1.29373
1.30996
1.32647
1.34409
1.35936
1.37565
1.38737
1.39909
1.39894
1.40604
1.37844
1.35552
1.30598
1.2481
1.17514
1.10148
1.02721
0.968811
0.903663
0.84562
0.78811
0.741419
0.699761
0.655122
0.632758
0.607419
0.591289
0.576095
0.565494