/*--------------------------------*- C++ -*----------------------------------*\
| =========                 |                                                 |
| \\      /  F ield         | OpenFOAM: The Open Source CFD Toolbox           |
|  \\    /   O peration     | Version:  v2006                                 |
|   \\  /    A nd           | Website:  www.openfoam.com                      |
|    \\/     M anipulation  |                                                 |
\*---------------------------------------------------------------------------*/
FoamFile
{
    version     2.0;
    format      ascii;
    class       volScalarField;
    location    "150";
    object      pMean;
}
// * * * * * * * * * * * * * * * * * * * * * * * * * * * * * * * * * * * * * //

dimensions      [1 -1 -2 0 0 0 0];


internalField   nonuniform List<scalar> 
93840
(
1.02347
1.01682
1.01967
1.01656
1.01788
1.01547
1.01819
1.01638
1.01867
1.01866
1.02196
1.02348
1.02812
1.03159
1.03788
1.04328
1.04999
1.05444
1.05984
1.06303
1.06465
1.06662
1.06945
1.06772
1.06532
1.06391
1.06137
1.06106
1.05851
1.06057
1.05564
1.07607
1.05551
1.06267
1.0676
1.07162
1.07433
1.07771
1.0801
1.08322
1.0851
1.08731
1.08908
1.091
1.09274
1.09482
1.09667
1.09832
1.09979
1.10163
1.10303
1.10429
1.10593
1.10807
1.10893
1.10897
1.10973
1.11088
1.11268
1.11389
1.11426
1.11521
1.11625
1.11633
1.11655
1.11692
1.11693
1.11659
1.11662
1.11636
1.11596
1.11559
1.11498
1.11411
1.11341
1.11243
1.1114
1.11027
1.10882
1.10739
1.10603
1.10449
1.10285
1.10074
1.09861
1.09646
1.09408
1.09175
1.08933
1.08673
1.08351
1.08005
1.07659
1.07286
1.069
1.06474
1.06046
1.05601
1.05138
1.04633
1.04113
1.03595
1.03074
1.02185
1.01261
1.0092
1.00647
0.999337
0.991492
0.983685
0.976028
0.968393
0.961096
0.952223
0.944286
0.936345
0.929474
0.921143
0.914931
0.908312
0.904066
0.898446
0.897474
0.894248
0.897797
0.900995
0.901798
0.910991
0.912618
0.918428
0.925984
0.931503
0.939706
0.944136
0.950845
0.956378
0.964347
0.969252
0.976129
0.980399
0.98599
0.990619
0.997578
1.0024
1.00801
1.01257
1.01787
1.02228
1.0283
1.03391
1.03992
1.04525
1.05145
1.05738
1.0641
1.07032
1.07742
1.08423
1.0924
1.10017
1.10745
1.11396
1.12213
1.13048
1.13981
1.14957
1.16081
1.17158
1.18233
1.19363
1.20788
1.22325
1.2395
1.25422
1.27225
1.29217
1.31453
1.34034
1.36727
1.39251
1.41206
1.43142
1.4118
1.35705
1.24603
1.12052
0.978181
0.885056
0.836119
0.824615
0.744389
0.690158
0.648516
0.627028
0.595657
0.58623
0.577769
0.572012
0.567509
0.56394
0.565503
0.566847
0.567468
0.56785
0.568621
0.570569
0.572444
0.57395
0.575794
0.577101
0.577703
0.578471
0.578864
0.578931
0.579628
0.580912
0.581875
0.582042
0.582409
0.581314
0.578134
0.576832
0.578192
0.579657
0.581835
0.58399
0.586134
0.58856
0.592247
0.595827
0.595688
0.592967
0.591776
0.590028
0.590159
0.592742
0.596237
0.602099
0.610266
0.617179
0.62075
0.623119
0.626232
0.627937
0.63206
0.638152
0.64775
0.65267
0.661754
0.661468
0.662188
0.673161
0.685762
0.704793
0.731953
0.764479
0.783305
0.791579
0.798861
0.806736
0.814216
0.821835
0.82873
0.835976
0.842994
0.850388
0.856768
0.864236
0.87462
0.884802
0.888794
0.892753
0.901009
0.910947
0.916648
0.920572
0.926225
0.933463
0.939959
0.945743
0.951501
0.957141
0.962752
0.968187
0.97362
0.978843
0.983718
0.988439
0.99297
0.997395
1.0016
1.00564
1.00946
1.01308
1.01645
1.01961
1.02254
1.02522
1.02761
1.02943
1.03128
1.03299
1.03425
1.03548
1.03683
1.03814
1.03945
1.04053
1.04155
1.04227
1.04317
1.04358
1.04441
1.04468
1.04537
1.04568
1.04659
1.04678
1.04748
1.04748
1.04814
1.0479
1.04857
1.04821
1.04879
1.04827
1.04908
1.04858
1.04952
1.04884
1.05002
1.04913
1.05097
1.0494
1.05203
1.05009
1.04621
1.05141
1.05518
1.05875
1.06112
1.06416
1.06791
1.06702
1.06851
1.06944
1.06677
1.0649
1.06307
1.05995
1.05445
1.04993
1.04316
1.03773
1.03147
1.02796
1.0233
1.02178
1.01848
1.01845
1.01612
1.01784
1.01524
1.0175
1.01635
1.01944
1.01663
1.02335
1.02334
1.01662
1.01943
1.01634
1.01749
1.01524
1.01785
1.01612
1.01846
1.01849
1.0218
1.02332
1.02799
1.03151
1.03777
1.0432
1.04996
1.05448
1.05995
1.06303
1.06483
1.06676
1.06921
1.06818
1.06659
1.06645
1.06353
1.06136
1.05947
1.05831
1.05607
1.05713
1.06057
1.06407
1.06787
1.07116
1.07402
1.07713
1.07947
1.08237
1.08431
1.08669
1.08846
1.09056
1.09228
1.09432
1.09605
1.09783
1.09934
1.10111
1.10254
1.10399
1.10548
1.10727
1.10827
1.10874
1.10963
1.1107
1.11223
1.11339
1.11395
1.11485
1.11578
1.11598
1.11626
1.11657
1.11663
1.11636
1.11637
1.11611
1.11573
1.11535
1.11476
1.11392
1.11322
1.11224
1.11122
1.1101
1.10868
1.10726
1.10589
1.10434
1.1027
1.10062
1.0985
1.09635
1.09398
1.09165
1.08921
1.0866
1.08341
1.07998
1.07652
1.07279
1.06894
1.0647
1.06043
1.05598
1.05135
1.04632
1.04114
1.03593
1.03066
1.02195
1.01292
1.00937
1.00641
0.999348
0.991626
0.983861
0.976239
0.96862
0.961329
0.952524
0.944671
0.936762
0.929899
0.921661
0.915516
0.908953
0.904703
0.899216
0.898265
0.895131
0.898627
0.901737
0.902638
0.911592
0.913344
0.91916
0.926598
0.932088
0.940207
0.944675
0.951422
0.95691
0.964804
0.969705
0.976569
0.980878
0.986554
0.991195
0.998085
1.0029
1.00858
1.01316
1.01855
1.02306
1.02909
1.03469
1.04075
1.04616
1.05244
1.05842
1.06521
1.07152
1.07873
1.08562
1.09376
1.10149
1.10902
1.11592
1.12433
1.13287
1.14246
1.15241
1.16371
1.17478
1.18635
1.19851
1.21304
1.2282
1.24459
1.26051
1.27922
1.29888
1.32014
1.34206
1.36404
1.38569
1.39822
1.41543
1.39695
1.3617
1.28893
1.19298
1.07643
0.976307
0.904194
0.869134
0.792327
0.735792
0.687079
0.659464
0.621834
0.605968
0.593873
0.585005
0.578241
0.572545
0.572191
0.572727
0.572725
0.572503
0.572643
0.573961
0.575504
0.576758
0.578313
0.57947
0.579945
0.58053
0.5808
0.580718
0.581202
0.582287
0.583182
0.58332
0.583636
0.582651
0.579477
0.577875
0.579021
0.580397
0.582478
0.584577
0.586698
0.589094
0.592735
0.596312
0.596354
0.593713
0.592469
0.590684
0.590686
0.593163
0.596633
0.602481
0.61066
0.617565
0.621127
0.623492
0.626623
0.62832
0.632414
0.638479
0.648166
0.653017
0.661923
0.661881
0.662589
0.673437
0.686101
0.705136
0.732301
0.764825
0.78361
0.791822
0.79908
0.806947
0.814423
0.822036
0.828932
0.836175
0.843177
0.850567
0.857022
0.86453
0.87472
0.884728
0.888898
0.893078
0.901213
0.910912
0.916646
0.920755
0.926442
0.933582
0.940036
0.945839
0.951609
0.957248
0.962857
0.968291
0.973708
0.978917
0.983794
0.98852
0.993051
0.997471
1.00167
1.00571
1.00952
1.01313
1.0165
1.01964
1.02256
1.02523
1.02761
1.02946
1.03133
1.03303
1.03428
1.03553
1.03691
1.0382
1.0395
1.04057
1.04157
1.04228
1.04317
1.04356
1.0444
1.04465
1.04537
1.04571
1.0466
1.04677
1.04744
1.04745
1.04811
1.04786
1.04854
1.04816
1.04876
1.04826
1.04912
1.04859
1.04955
1.04886
1.05005
1.04904
1.0509
1.04869
1.05262
1.0461
1.0573
1.05163
1.05522
1.05525
1.05817
1.06009
1.06232
1.06474
1.06768
1.06935
1.06648
1.06459
1.06307
1.05984
1.05443
1.04997
1.04325
1.03784
1.03156
1.0281
1.02346
1.02195
1.01865
1.01867
1.01638
1.01819
1.01546
1.01788
1.01655
1.01967
1.01681
1.02346
1.02348
1.01683
1.01968
1.01657
1.01789
1.01548
1.0182
1.0164
1.01869
1.01868
1.02198
1.02351
1.02817
1.03164
1.03794
1.04333
1.05004
1.05449
1.05986
1.06304
1.06483
1.0667
1.06934
1.06772
1.06581
1.06523
1.06312
1.06302
1.062
1.06352
1.06467
1.06758
1.06004
1.0704
1.06769
1.07376
1.074
1.07817
1.07947
1.08271
1.08425
1.08674
1.08838
1.09048
1.09217
1.09418
1.09591
1.09765
1.09918
1.10092
1.10236
1.10381
1.10529
1.10703
1.10803
1.10856
1.10948
1.11056
1.11205
1.11318
1.11377
1.11467
1.11557
1.11579
1.11609
1.11639
1.11646
1.11621
1.11622
1.11596
1.11559
1.11521
1.11462
1.1138
1.1131
1.11212
1.1111
1.10998
1.10857
1.10717
1.10579
1.10424
1.1026
1.10053
1.09842
1.09627
1.09391
1.09158
1.08914
1.08653
1.08335
1.07992
1.07646
1.07274
1.06889
1.06466
1.0604
1.05595
1.05133
1.04631
1.04113
1.03592
1.03063
1.02196
1.01304
1.00946
1.00641
0.999371
0.991702
0.983962
0.976361
0.96876
0.961466
0.952708
0.944896
0.937016
0.930171
0.921965
0.915885
0.909326
0.905121
0.899633
0.898744
0.895668
0.899143
0.902222
0.903171
0.912025
0.913817
0.919636
0.927018
0.932504
0.940574
0.945064
0.951811
0.957292
0.965143
0.970049
0.976895
0.981225
0.986919
0.991577
0.998433
1.00326
1.00895
1.01357
1.01898
1.02354
1.02958
1.03519
1.04127
1.04674
1.05304
1.05905
1.06587
1.07222
1.07945
1.08639
1.09452
1.10224
1.10983
1.11684
1.12531
1.13389
1.14351
1.15345
1.16469
1.17567
1.18717
1.19918
1.21354
1.22858
1.24491
1.26064
1.27919
1.29909
1.32127
1.34501
1.36872
1.39282
1.40589
1.42306
1.40282
1.36578
1.28632
1.1925
1.07357
0.981751
0.909633
0.876329
0.801659
0.747011
0.697186
0.668463
0.630016
0.61339
0.600432
0.590917
0.583698
0.577365
0.57578
0.575901
0.575704
0.575263
0.575065
0.575997
0.57735
0.578455
0.579862
0.580946
0.581357
0.581824
0.58202
0.581853
0.58218
0.583132
0.583985
0.584087
0.584365
0.583443
0.580256
0.578525
0.579538
0.580849
0.582871
0.584945
0.587056
0.589425
0.593054
0.596647
0.596781
0.59416
0.592874
0.591052
0.590973
0.593408
0.596856
0.602677
0.610899
0.617848
0.621398
0.623734
0.626861
0.62854
0.6326
0.63863
0.6484
0.653263
0.662087
0.662136
0.662772
0.673532
0.686193
0.705156
0.732302
0.764994
0.783984
0.792118
0.799262
0.807107
0.814587
0.822191
0.829078
0.836312
0.843305
0.850693
0.857168
0.864677
0.874793
0.884758
0.888992
0.89322
0.901299
0.910929
0.916689
0.920847
0.926535
0.933645
0.940089
0.945895
0.951663
0.957299
0.962904
0.968335
0.973745
0.978948
0.983825
0.988548
0.993075
0.997491
1.00169
1.00572
1.00952
1.01313
1.01649
1.01964
1.02256
1.02521
1.02757
1.02938
1.03117
1.03287
1.03418
1.03544
1.03678
1.03809
1.03937
1.04045
1.04146
1.04217
1.04305
1.04348
1.04429
1.04461
1.04533
1.04562
1.04647
1.04665
1.04737
1.04737
1.04803
1.04783
1.0485
1.04819
1.04882
1.04837
1.04914
1.04867
1.04955
1.04899
1.05004
1.0493
1.05079
1.04985
1.05198
1.05045
1.05398
1.05261
1.05568
1.05784
1.06035
1.06395
1.06758
1.06687
1.06903
1.0697
1.0668
1.0649
1.06306
1.05993
1.05441
1.04989
1.04311
1.03768
1.03143
1.02793
1.02328
1.02177
1.01848
1.01846
1.01612
1.01785
1.01525
1.0175
1.01636
1.01944
1.01664
1.02336
1.02332
1.01661
1.01942
1.01632
1.01748
1.01521
1.01782
1.01609
1.01844
1.01848
1.02179
1.02332
1.028
1.03153
1.0378
1.04323
1.04998
1.05448
1.05993
1.06298
1.06483
1.06682
1.06916
1.06821
1.06687
1.06698
1.06503
1.0637
1.06216
1.0615
1.06118
1.06316
1.0648
1.06702
1.06947
1.07221
1.07451
1.07729
1.07938
1.08203
1.08388
1.08625
1.08797
1.09011
1.09178
1.0938
1.09545
1.09727
1.09878
1.10052
1.10195
1.10348
1.10488
1.10648
1.10754
1.1083
1.10928
1.11033
1.11167
1.11277
1.11347
1.11433
1.11517
1.11547
1.1158
1.11608
1.11617
1.11597
1.11597
1.11572
1.11537
1.11498
1.11441
1.11361
1.11291
1.11195
1.11093
1.10981
1.10843
1.10703
1.10565
1.1041
1.10246
1.10041
1.09831
1.09617
1.09381
1.09148
1.08903
1.08641
1.08325
1.07985
1.0764
1.07269
1.06884
1.06462
1.06037
1.05592
1.05131
1.0463
1.04114
1.03591
1.0306
1.02206
1.0133
1.00961
1.00638
0.999409
0.991844
0.984144
0.976575
0.968996
0.961718
0.953007
0.945278
0.937427
0.930576
0.922472
0.91642
0.909948
0.905675
0.900384
0.899445
0.896423
0.899878
0.902845
0.903869
0.912516
0.914418
0.920221
0.927513
0.932962
0.940969
0.945479
0.95226
0.957692
0.965494
0.970387
0.977236
0.98159
0.987362
0.992021
0.998837
1.00366
1.0094
1.01403
1.01952
1.02413
1.0302
1.03579
1.04192
1.04743
1.05379
1.05983
1.0667
1.07309
1.0804
1.08739
1.0955
1.1032
1.11096
1.11822
1.12684
1.13555
1.14534
1.1554
1.16671
1.17793
1.18992
1.20242
1.21695
1.23193
1.2483
1.26456
1.2832
1.3027
1.32383
1.34569
1.36714
1.3851
1.39915
1.41166
1.39737
1.37147
1.3033
1.22426
1.1235
1.03166
0.953894
0.907626
0.834292
0.777587
0.724483
0.691876
0.649746
0.628553
0.612716
0.600747
0.591813
0.583867
0.580896
0.580277
0.579686
0.57882
0.578244
0.5787
0.579847
0.580816
0.582004
0.582982
0.583316
0.583653
0.583759
0.583477
0.583645
0.584427
0.585222
0.585317
0.585552
0.584742
0.581583
0.579529
0.580344
0.581583
0.583513
0.585528
0.587612
0.589958
0.593539
0.597129
0.597458
0.594933
0.593593
0.591735
0.591528
0.593829
0.597232
0.603049
0.61131
0.618277
0.621798
0.624119
0.627269
0.628926
0.632936
0.638957
0.648836
0.653664
0.662285
0.662538
0.663142
0.673751
0.686459
0.705372
0.732574
0.765452
0.784487
0.792447
0.799508
0.807335
0.814806
0.822402
0.829288
0.836517
0.843499
0.85088
0.857412
0.864952
0.874914
0.884734
0.8891
0.893502
0.901496
0.910945
0.916717
0.921012
0.926731
0.933767
0.940177
0.945996
0.951773
0.95741
0.963014
0.968445
0.973842
0.979032
0.983906
0.98863
0.993154
0.997562
1.00175
1.00577
1.00957
1.01317
1.01653
1.01966
1.02256
1.0252
1.02757
1.02943
1.03128
1.03297
1.03428
1.03557
1.03693
1.0382
1.03947
1.04051
1.04153
1.04223
1.04311
1.04353
1.04436
1.04465
1.0454
1.04571
1.04655
1.04671
1.0474
1.04737
1.04804
1.04781
1.04851
1.04816
1.04885
1.04836
1.04921
1.04863
1.0496
1.04884
1.05007
1.04903
1.05086
1.04932
1.05238
1.04957
1.05499
1.05243
1.05609
1.05567
1.05743
1.05977
1.06205
1.06456
1.06776
1.06942
1.06643
1.06455
1.06296
1.05982
1.05438
1.04992
1.0432
1.03779
1.03151
1.02806
1.02343
1.02192
1.01863
1.01865
1.01636
1.01817
1.01544
1.01787
1.01654
1.01966
1.0168
1.02345
1.0235
1.01684
1.0197
1.01659
1.01791
1.0155
1.01822
1.01643
1.01872
1.01871
1.02201
1.02355
1.02821
1.03169
1.03799
1.04337
1.05008
1.05453
1.05988
1.06302
1.06494
1.06674
1.06924
1.06769
1.06611
1.06577
1.06414
1.06473
1.06422
1.06587
1.06543
1.0685
1.06555
1.07152
1.06978
1.0749
1.07468
1.07871
1.07947
1.08266
1.08391
1.08646
1.08795
1.09011
1.09171
1.09368
1.09532
1.09709
1.09862
1.10031
1.10175
1.10325
1.10466
1.1062
1.10728
1.10807
1.10908
1.11013
1.11144
1.11252
1.11323
1.11408
1.11491
1.11522
1.11557
1.11585
1.11595
1.11577
1.11577
1.11552
1.11518
1.11479
1.11423
1.11344
1.11274
1.11178
1.11077
1.10966
1.10829
1.1069
1.10551
1.10396
1.10232
1.10029
1.0982
1.09606
1.09371
1.09139
1.08893
1.08631
1.08315
1.07976
1.07631
1.07261
1.06877
1.06457
1.06032
1.05589
1.05128
1.04628
1.04113
1.03589
1.03053
1.02207
1.01347
1.00973
1.0064
0.999439
0.991946
0.984277
0.97674
0.969186
0.961898
0.953261
0.945582
0.937775
0.930956
0.922877
0.916937
0.910439
0.906269
0.900911
0.900105
0.897161
0.900582
0.903525
0.90461
0.913134
0.915078
0.920889
0.928104
0.933555
0.941493
0.946034
0.952804
0.958232
0.965973
0.970876
0.977689
0.982071
0.987851
0.992529
0.999296
1.00413
1.00987
1.01454
1.02004
1.02471
1.03077
1.03637
1.04251
1.04806
1.05444
1.06051
1.06738
1.07382
1.08114
1.08814
1.09624
1.10393
1.11174
1.11907
1.12772
1.13644
1.14622
1.15624
1.16747
1.17856
1.19044
1.20275
1.21707
1.23185
1.24806
1.26401
1.28238
1.30158
1.32261
1.34385
1.36482
1.38448
1.39507
1.40678
1.38821
1.35991
1.2934
1.21854
1.11625
1.03259
0.955052
0.911716
0.840004
0.786039
0.73271
0.699721
0.657341
0.635865
0.619181
0.606683
0.597401
0.588877
0.585015
0.584083
0.583175
0.581971
0.581012
0.581085
0.581882
0.582733
0.583747
0.584628
0.584942
0.585155
0.585198
0.584855
0.584835
0.585465
0.586217
0.586275
0.586463
0.585742
0.582605
0.580431
0.581055
0.58219
0.58404
0.586026
0.588103
0.590413
0.593969
0.597576
0.598024
0.59553
0.594134
0.592227
0.591919
0.594157
0.597524
0.603322
0.611669
0.618687
0.622175
0.624462
0.627603
0.629231
0.633178
0.639168
0.649188
0.654019
0.662534
0.66289
0.6634
0.673888
0.686601
0.705401
0.732606
0.765825
0.785109
0.792913
0.799792
0.807579
0.815053
0.822632
0.829501
0.836713
0.843679
0.851055
0.857612
0.865146
0.875012
0.88479
0.889241
0.893685
0.901596
0.91096
0.916779
0.92113
0.926842
0.933842
0.940242
0.946062
0.951833
0.957464
0.963059
0.968482
0.973868
0.979052
0.983927
0.988648
0.993166
0.997567
1.00175
1.00576
1.00954
1.01314
1.01649
1.01962
1.02252
1.02514
1.02748
1.02932
1.03111
1.03279
1.03415
1.03545
1.03679
1.03806
1.03932
1.04037
1.04139
1.0421
1.04297
1.04342
1.04423
1.04457
1.04532
1.0456
1.04639
1.04656
1.04728
1.04729
1.04796
1.0478
1.04848
1.04819
1.04887
1.04847
1.04922
1.04875
1.04959
1.04905
1.05005
1.04941
1.05077
1.05007
1.05213
1.05125
1.05443
1.05356
1.05646
1.05762
1.05933
1.0623
1.06597
1.06645
1.06916
1.06981
1.06675
1.0649
1.06319
1.05993
1.0544
1.04987
1.04307
1.03764
1.0314
1.02792
1.02327
1.02177
1.01849
1.01847
1.01613
1.01786
1.01527
1.01751
1.01637
1.01945
1.01665
1.02337
1.02331
1.0166
1.01941
1.01631
1.01747
1.0152
1.01782
1.01609
1.01844
1.01849
1.0218
1.02333
1.02802
1.03156
1.03784
1.04326
1.05
1.0545
1.05992
1.06294
1.06487
1.06687
1.06909
1.06823
1.0672
1.0674
1.06582
1.06511
1.06396
1.06437
1.06448
1.06626
1.06739
1.06937
1.07112
1.07348
1.07529
1.07778
1.07955
1.082
1.08368
1.08596
1.08759
1.08971
1.09131
1.0933
1.09486
1.0967
1.09817
1.0999
1.1013
1.10286
1.1042
1.10569
1.10679
1.10773
1.10877
1.10982
1.11103
1.11209
1.11286
1.11369
1.11447
1.11485
1.11522
1.11548
1.11561
1.11547
1.11546
1.11523
1.1149
1.11451
1.11396
1.1132
1.1125
1.11155
1.11056
1.10944
1.1081
1.10672
1.10534
1.10378
1.10214
1.10012
1.09805
1.09591
1.09357
1.09125
1.08878
1.08615
1.08303
1.07966
1.07622
1.07253
1.0687
1.06451
1.06026
1.05583
1.05122
1.04625
1.04112
1.03588
1.03051
1.02217
1.01372
1.00991
1.00638
0.999484
0.992104
0.984485
0.976989
0.969465
0.962204
0.953603
0.946033
0.93826
0.931421
0.923477
0.917541
0.911176
0.906874
0.901807
0.900894
0.897988
0.901417
0.904206
0.905372
0.913671
0.91573
0.921513
0.92864
0.934047
0.94192
0.946473
0.953277
0.958651
0.966345
0.971228
0.978049
0.982449
0.988307
0.992984
0.999719
1.00455
1.01034
1.01502
1.0206
1.02531
1.03141
1.03698
1.04318
1.04877
1.05521
1.06131
1.06823
1.07471
1.0821
1.08916
1.09726
1.10495
1.11292
1.12046
1.12925
1.1381
1.14804
1.15818
1.1695
1.1808
1.19304
1.2057
1.2201
1.23485
1.25097
1.26713
1.28523
1.30385
1.32362
1.34337
1.36201
1.37844
1.38896
1.40051
1.38389
1.36375
1.30588
1.24005
1.15354
1.07113
0.993653
0.941266
0.8712
0.815091
0.759682
0.72323
0.677994
0.652185
0.632435
0.617308
0.606152
0.595909
0.590224
0.58821
0.586815
0.58535
0.584121
0.583738
0.58432
0.585005
0.585897
0.586632
0.586933
0.587006
0.586975
0.586514
0.586343
0.586791
0.587485
0.587572
0.58774
0.587152
0.584081
0.581545
0.581945
0.583015
0.584772
0.586693
0.588747
0.591035
0.594532
0.598144
0.598841
0.596487
0.595032
0.593086
0.592609
0.594675
0.597971
0.603744
0.61218
0.619241
0.622682
0.624942
0.628116
0.629714
0.633583
0.639556
0.649737
0.654567
0.662802
0.663398
0.663826
0.67411
0.686852
0.705546
0.73281
0.76645
0.78589
0.793403
0.800121
0.80788
0.815342
0.822907
0.829771
0.836972
0.843925
0.851294
0.857901
0.865449
0.87515
0.884792
0.889381
0.893977
0.901796
0.911007
0.916838
0.921306
0.927038
0.933966
0.940334
0.946163
0.951942
0.957573
0.963167
0.96859
0.973964
0.979131
0.983998
0.988714
0.993225
0.997614
1.00178
1.00579
1.00957
1.01316
1.01649
1.01961
1.02249
1.0251
1.02745
1.02935
1.03118
1.03286
1.03422
1.03554
1.03689
1.03814
1.03938
1.04041
1.04144
1.04213
1.04302
1.04346
1.04427
1.04458
1.04535
1.04564
1.04645
1.04659
1.04729
1.04726
1.04794
1.04774
1.04846
1.04814
1.04891
1.04845
1.04933
1.04873
1.04972
1.04895
1.05021
1.04922
1.05097
1.04977
1.05236
1.05095
1.05461
1.05337
1.05668
1.05678
1.05853
1.06023
1.06219
1.06423
1.06788
1.06953
1.06638
1.06453
1.06294
1.05981
1.05433
1.04988
1.04315
1.03774
1.03147
1.02802
1.0234
1.02189
1.01861
1.01863
1.01634
1.01816
1.01543
1.01786
1.01653
1.01965
1.01679
1.02344
1.02351
1.01685
1.01971
1.0166
1.01792
1.01551
1.01823
1.01645
1.01873
1.01873
1.02203
1.02358
1.02825
1.03173
1.03805
1.04342
1.05012
1.05456
1.05989
1.06299
1.06501
1.0668
1.06913
1.06774
1.06653
1.06644
1.0653
1.06613
1.06595
1.06754
1.06702
1.06974
1.06851
1.07256
1.07174
1.07575
1.07568
1.07918
1.07979
1.08274
1.08381
1.08628
1.08764
1.08977
1.09128
1.0932
1.09476
1.09651
1.09801
1.09966
1.10109
1.10259
1.10395
1.10537
1.10651
1.10745
1.10852
1.10955
1.11075
1.11178
1.11257
1.11339
1.11417
1.11454
1.11493
1.11519
1.11533
1.11521
1.11521
1.11498
1.11466
1.11427
1.11373
1.11298
1.11228
1.11135
1.11035
1.10924
1.10791
1.10654
1.10515
1.1036
1.10196
1.09996
1.0979
1.09577
1.09344
1.09112
1.08866
1.08603
1.0829
1.07954
1.07611
1.07242
1.06859
1.06443
1.0602
1.05579
1.05119
1.04622
1.0411
1.03585
1.03043
1.02217
1.01393
1.01005
1.0064
0.99953
0.992235
0.984654
0.977195
0.969706
0.962426
0.953925
0.946407
0.938689
0.931899
0.923965
0.918183
0.911758
0.907614
0.902406
0.901672
0.898865
0.90224
0.905007
0.906239
0.9144
0.916495
0.922284
0.929315
0.934723
0.942512
0.947094
0.953874
0.959242
0.966865
0.971758
0.978536
0.982962
0.988821
0.993515
1.0002
1.00504
1.01083
1.01555
1.02113
1.0259
1.03199
1.03758
1.04378
1.04941
1.05587
1.06199
1.06892
1.07543
1.08282
1.08989
1.09797
1.10566
1.11365
1.12124
1.13004
1.13888
1.14879
1.15886
1.17008
1.18123
1.19331
1.20575
1.21991
1.23439
1.25027
1.26605
1.2838
1.30196
1.32141
1.34038
1.35856
1.37502
1.38278
1.39311
1.37407
1.35007
1.29254
1.23252
1.1442
1.06961
0.992084
0.943401
0.874256
0.821279
0.766101
0.729956
0.684886
0.659268
0.638739
0.623224
0.611826
0.601321
0.594862
0.59258
0.590861
0.589005
0.587302
0.586537
0.586756
0.587228
0.587915
0.588514
0.588738
0.588703
0.588561
0.588024
0.587703
0.587998
0.588594
0.588657
0.588758
0.588236
0.585212
0.582552
0.582731
0.583666
0.585379
0.587211
0.589276
0.591502
0.595026
0.598637
0.599471
0.597177
0.595665
0.593675
0.593089
0.595075
0.598324
0.604071
0.612628
0.619779
0.623152
0.625373
0.628532
0.630092
0.633881
0.639823
0.650196
0.655059
0.663123
0.663829
0.664172
0.674284
0.687056
0.70561
0.73291
0.767082
0.786773
0.794034
0.800506
0.80821
0.815675
0.823218
0.830056
0.837233
0.844162
0.851524
0.858162
0.865702
0.87529
0.884885
0.889571
0.894207
0.901925
0.91103
0.916922
0.921452
0.927175
0.934067
0.940423
0.94625
0.952018
0.957638
0.963219
0.96863
0.97399
0.979152
0.984021
0.988733
0.99324
0.997621
1.00178
1.00577
1.00953
1.0131
1.01643
1.01955
1.02242
1.02501
1.02733
1.02921
1.031
1.03267
1.03406
1.03539
1.03672
1.03798
1.03921
1.04024
1.04127
1.042
1.04287
1.04334
1.04413
1.04449
1.04524
1.04551
1.04628
1.04644
1.04716
1.04718
1.04785
1.04772
1.04841
1.04817
1.04888
1.04854
1.0493
1.04888
1.04973
1.04925
1.05026
1.04972
1.05104
1.0505
1.05236
1.0519
1.0545
1.0542
1.05704
1.05781
1.05979
1.06185
1.06461
1.0655
1.06909
1.06987
1.06668
1.06491
1.06325
1.05992
1.05437
1.04984
1.04302
1.03759
1.03136
1.02789
1.02325
1.02177
1.01848
1.01847
1.01614
1.01786
1.01528
1.01751
1.01638
1.01946
1.01666
1.02339
1.02329
1.01658
1.0194
1.01629
1.01746
1.01519
1.01781
1.01607
1.01843
1.01849
1.02181
1.02334
1.02804
1.0316
1.03788
1.0433
1.05003
1.05452
1.05991
1.0629
1.06493
1.06692
1.06905
1.0683
1.06761
1.0679
1.06664
1.06647
1.06575
1.06661
1.06688
1.06851
1.06941
1.07126
1.0726
1.0747
1.07615
1.0784
1.07989
1.08215
1.08364
1.08582
1.08731
1.08937
1.09086
1.09281
1.09429
1.09611
1.09753
1.09924
1.1006
1.10215
1.10345
1.10487
1.106
1.10705
1.10812
1.10917
1.1103
1.11131
1.11213
1.11294
1.11368
1.11411
1.11451
1.11477
1.11493
1.11484
1.11484
1.11462
1.11432
1.11393
1.11341
1.11268
1.11199
1.11106
1.11008
1.10898
1.10767
1.10631
1.10493
1.10337
1.10174
1.09976
1.09771
1.09558
1.09326
1.09094
1.08846
1.08583
1.08274
1.07941
1.07599
1.07232
1.0685
1.06434
1.06012
1.05571
1.05111
1.04617
1.04108
1.03584
1.03043
1.02226
1.01416
1.01025
1.00639
0.999582
0.99241
0.984888
0.977476
0.970025
0.962785
0.95431
0.946919
0.939241
0.932414
0.924639
0.918832
0.912585
0.908223
0.903399
0.902492
0.899725
0.903144
0.905726
0.907031
0.914966
0.917173
0.922924
0.92987
0.935232
0.942958
0.947549
0.95436
0.959675
0.967255
0.972128
0.978916
0.98336
0.989291
0.993983
1.00064
1.00548
1.01132
1.01605
1.02171
1.02652
1.03264
1.03822
1.04447
1.05014
1.05666
1.06281
1.06979
1.07635
1.08381
1.09093
1.09902
1.10673
1.11485
1.12263
1.13157
1.14053
1.15056
1.16075
1.17205
1.18338
1.19569
1.20837
1.22252
1.23695
1.25261
1.26837
1.28561
1.30308
1.32123
1.33885
1.35507
1.36931
1.37657
1.38635
1.36933
1.34985
1.30311
1.24674
1.17256
1.09922
1.02506
0.970235
0.903338
0.84839
0.792225
0.753091
0.705998
0.67647
0.652902
0.634634
0.621277
0.609019
0.600553
0.596699
0.594356
0.5923
0.590362
0.58917
0.589134
0.589453
0.590056
0.59053
0.590709
0.590581
0.590348
0.589695
0.589237
0.589345
0.589854
0.589945
0.590032
0.589628
0.586704
0.583715
0.583673
0.58451
0.586119
0.587885
0.589899
0.592103
0.59557
0.599233
0.600301
0.598226
0.596627
0.594606
0.593824
0.595629
0.598795
0.604514
0.613186
0.620432
0.623748
0.625931
0.629123
0.630667
0.634367
0.640262
0.650862
0.655753
0.663458
0.664439
0.664678
0.674523
0.687363
0.705771
0.7331
0.767907
0.787849
0.79468
0.800913
0.808591
0.816042
0.823561
0.830392
0.837551
0.844467
0.851816
0.858498
0.866037
0.875448
0.884918
0.889749
0.894514
0.902133
0.911112
0.917015
0.92164
0.927374
0.934193
0.94052
0.946352
0.952126
0.957745
0.963325
0.968736
0.974081
0.979224
0.98408
0.988784
0.993279
0.997646
1.00179
1.00578
1.00954
1.0131
1.01642
1.01951
1.02236
1.02494
1.02728
1.0292
1.03103
1.0327
1.0341
1.03545
1.03678
1.03802
1.03924
1.04024
1.04128
1.042
1.0429
1.04338
1.04417
1.04449
1.04525
1.04552
1.0463
1.04644
1.04715
1.04713
1.04782
1.04765
1.04839
1.0481
1.04892
1.04849
1.0494
1.04881
1.04986
1.04912
1.05044
1.04955
1.0513
1.05036
1.05266
1.05175
1.0547
1.05405
1.05718
1.05749
1.05966
1.06126
1.06304
1.06436
1.06781
1.06955
1.06634
1.06453
1.06296
1.05976
1.05429
1.04984
1.0431
1.03768
1.03142
1.02798
1.02337
1.02187
1.01859
1.01862
1.01633
1.01815
1.01542
1.01786
1.01652
1.01965
1.01678
1.02343
1.02352
1.01686
1.01972
1.01661
1.01793
1.01553
1.01824
1.01646
1.01875
1.01875
1.02206
1.02361
1.02829
1.03178
1.0381
1.04347
1.05016
1.0546
1.0599
1.06297
1.06509
1.06685
1.06899
1.06787
1.06701
1.06722
1.06645
1.06752
1.06739
1.06898
1.06864
1.07102
1.07054
1.0736
1.07335
1.07652
1.07669
1.07964
1.08026
1.08289
1.08388
1.08617
1.08742
1.08946
1.09087
1.09273
1.0942
1.09591
1.09736
1.09897
1.10037
1.10184
1.10317
1.10453
1.10568
1.10672
1.10781
1.10884
1.10997
1.11095
1.11179
1.11258
1.11332
1.11375
1.11417
1.11443
1.1146
1.11452
1.11453
1.11431
1.11403
1.11364
1.11312
1.11241
1.11172
1.1108
1.10983
1.10873
1.10743
1.10608
1.1047
1.10315
1.10151
1.09956
1.09752
1.0954
1.0931
1.09078
1.08831
1.08567
1.08258
1.07926
1.07584
1.07217
1.06837
1.06424
1.06004
1.05565
1.05107
1.04614
1.04105
1.03582
1.03033
1.02226
1.0144
1.01042
1.00643
0.999647
0.992573
0.98509
0.977725
0.970316
0.963051
0.954698
0.947361
0.93978
0.932938
0.925348
0.919435
0.913425
0.908838
0.904412
0.903005
0.900661
0.90398
0.906572
0.907919
0.915729
0.917965
0.923723
0.930569
0.935937
0.943571
0.948194
0.954972
0.960288
0.967791
0.972681
0.97942
0.983893
0.989817
0.994533
1.00114
1.00599
1.01183
1.0166
1.02226
1.02712
1.03323
1.03883
1.04508
1.05079
1.05731
1.06349
1.07047
1.07706
1.0845
1.09164
1.0997
1.10741
1.11553
1.12335
1.13226
1.14121
1.15117
1.16128
1.17243
1.18361
1.19572
1.20815
1.22203
1.23614
1.25151
1.26683
1.28368
1.30058
1.31832
1.33504
1.3508
1.36452
1.37022
1.37897
1.36032
1.33973
1.2884
1.23914
1.16216
1.09625
1.02174
0.971008
0.904501
0.852777
0.79705
0.75874
0.712128
0.683165
0.658991
0.640496
0.626939
0.614597
0.605505
0.601466
0.598758
0.596312
0.593947
0.592273
0.591924
0.591864
0.592306
0.592561
0.592682
0.592397
0.59209
0.591346
0.590761
0.590695
0.591103
0.591109
0.591173
0.590783
0.587938
0.58485
0.584577
0.585314
0.586799
0.588539
0.590476
0.592686
0.596064
0.59977
0.600984
0.598978
0.597308
0.595241
0.594373
0.596065
0.599135
0.604863
0.613645
0.621042
0.624224
0.626411
0.629568
0.631111
0.634695
0.640546
0.651411
0.656327
0.663844
0.664919
0.665116
0.674735
0.687641
0.705888
0.733217
0.768737
0.789002
0.795502
0.801399
0.809005
0.81647
0.823956
0.830752
0.837881
0.844765
0.852107
0.858826
0.866357
0.875635
0.885051
0.88999
0.894795
0.902294
0.911149
0.917127
0.921816
0.927537
0.934321
0.940637
0.946462
0.952219
0.957824
0.963386
0.968779
0.974109
0.979246
0.984104
0.988805
0.993297
0.997656
1.00179
1.00575
1.00948
1.01303
1.01633
1.01942
1.02227
1.02483
1.02713
1.02904
1.03084
1.0325
1.03392
1.03528
1.0366
1.03783
1.03904
1.04006
1.04108
1.04182
1.04271
1.04323
1.04402
1.0444
1.04512
1.04539
1.04612
1.04629
1.047
1.04704
1.04772
1.04762
1.04832
1.04812
1.04885
1.04857
1.04936
1.04899
1.04987
1.04945
1.0505
1.05006
1.05139
1.05101
1.05275
1.05254
1.05475
1.05483
1.05749
1.05831
1.06069
1.06221
1.06434
1.06491
1.06875
1.0698
1.06657
1.06495
1.06328
1.05993
1.05434
1.0498
1.04297
1.03754
1.03132
1.02787
1.02323
1.02175
1.01848
1.01847
1.01614
1.01787
1.01529
1.01752
1.01639
1.01946
1.01667
1.0234
1.02328
1.01657
1.01938
1.01628
1.01745
1.01517
1.0178
1.01607
1.01843
1.01849
1.02181
1.02336
1.02807
1.03163
1.03792
1.04334
1.05005
1.05454
1.0599
1.06287
1.065
1.06698
1.06901
1.06836
1.06813
1.06849
1.06747
1.06778
1.06738
1.06847
1.06878
1.07032
1.07109
1.07282
1.0739
1.07581
1.07701
1.07906
1.08031
1.08241
1.0837
1.08577
1.08709
1.08909
1.09045
1.09235
1.09372
1.09551
1.09685
1.09853
1.09984
1.10138
1.10262
1.10401
1.10514
1.10626
1.10732
1.10839
1.10945
1.11044
1.11127
1.11207
1.11278
1.11325
1.11367
1.11394
1.11413
1.11409
1.11409
1.11389
1.11362
1.11324
1.11274
1.11205
1.11136
1.11046
1.1095
1.10841
1.10714
1.1058
1.10443
1.10288
1.10125
1.0993
1.09728
1.09516
1.09286
1.09055
1.08807
1.08543
1.08238
1.07909
1.07569
1.07205
1.06825
1.06413
1.05994
1.05554
1.05097
1.04607
1.04102
1.03581
1.03034
1.02235
1.01463
1.01064
1.00644
0.999712
0.99277
0.985355
0.978041
0.97068
0.963437
0.955176
0.947851
0.940355
0.933473
0.926025
0.920078
0.91421
0.909543
0.905431
0.903766
0.901617
0.904848
0.907315
0.908733
0.916311
0.918671
0.924383
0.931149
0.936469
0.944044
0.948674
0.955477
0.960741
0.968205
0.973073
0.979822
0.984311
0.990302
0.995015
1.0016
1.00645
1.01234
1.01713
1.02286
1.02776
1.0339
1.03949
1.04579
1.05154
1.05812
1.06433
1.07136
1.078
1.0855
1.09268
1.10077
1.10851
1.11675
1.12473
1.13375
1.14281
1.15288
1.16309
1.17431
1.18561
1.19787
1.21042
1.22422
1.23821
1.25327
1.26838
1.28459
1.30073
1.31725
1.33274
1.34695
1.35888
1.36399
1.37213
1.35505
1.33661
1.29713
1.2485
1.18423
1.11908
1.04966
0.994765
0.931122
0.877674
0.821954
0.781099
0.733277
0.700907
0.673942
0.652648
0.637088
0.623037
0.611839
0.605907
0.602323
0.599546
0.596933
0.594928
0.594254
0.594113
0.594385
0.594619
0.594632
0.59431
0.593868