/*--------------------------------*- C++ -*----------------------------------*\
| =========                 |                                                 |
| \\      /  F ield         | OpenFOAM: The Open Source CFD Toolbox           |
|  \\    /   O peration     | Version:  v2006                                 |
|   \\  /    A nd           | Website:  www.openfoam.com                      |
|    \\/     M anipulation  |                                                 |
\*---------------------------------------------------------------------------*/
FoamFile
{
    version     2.0;
    format      ascii;
    class       volScalarField;
    location    "150";
    object      pPrime2Mean;
}
// * * * * * * * * * * * * * * * * * * * * * * * * * * * * * * * * * * * * * //

dimensions      [2 -2 -4 0 0 0 0];


internalField   nonuniform List<scalar> 
93840
(
0.000158176
9.38857e-05
0.000200226
0.000239479
0.000276489
0.00029381
0.000217493
0.000285407
0.000246568
0.000271966
0.000251229
0.000247111
0.000237347
0.000220142
0.000209908
0.000195513
0.000194735
0.000200535
0.000218825
0.000265696
0.000369387
0.000465811
0.000572181
0.000686999
0.00083109
0.000979237
0.00106127
0.00108972
0.00109213
0.00112884
0.00108863
0.00119566
0.00113557
0.00105223
0.000957047
0.000924697
0.000873079
0.000851747
0.00081375
0.00079703
0.000766344
0.000752968
0.000726918
0.00071525
0.000692537
0.000681489
0.000661574
0.000651464
0.000634174
0.000624515
0.000609175
0.000600056
0.000586495
0.000578017
0.000565548
0.000556851
0.000545684
0.000537703
0.000528243
0.000520561
0.000510964
0.000503793
0.000495527
0.000487877
0.00047977
0.000472879
0.000465185
0.000457983
0.000451087
0.000444328
0.000437616
0.000431254
0.000424914
0.000418567
0.00041286
0.000407023
0.000401599
0.000396348
0.000391083
0.0003863
0.000381734
0.000377618
0.000373353
0.000369364
0.000365255
0.000361939
0.000358357
0.000355504
0.000352784
0.000350356
0.000347714
0.000345326
0.000343277
0.000341646
0.000340222
0.000339038
0.000338314
0.000337969
0.000338083
0.000338545
0.00033943
0.000341179
0.000343306
0.000345368
0.000348401
0.00035262
0.00035726
0.000362194
0.000368265
0.000375183
0.000383269
0.000392158
0.000402005
0.000413723
0.000425787
0.000438213
0.000451848
0.000466968
0.00048256
0.000495865
0.000506677
0.000514557
0.000519665
0.000520559
0.000514312
0.000494332
0.000497838
0.000467609
0.000463243
0.000443743
0.0004289
0.000412261
0.000398255
0.000385385
0.000374783
0.000362462
0.000351729
0.000342141
0.00033388
0.000326584
0.000320568
0.000314399
0.000308114
0.000303337
0.000299135
0.000296107
0.00029305
0.000291648
0.00028893
0.000288061
0.000286387
0.000287363
0.00028665
0.000288829
0.000288907
0.000292651
0.000293789
0.000299004
0.000300759
0.00030726
0.000311678
0.000322022
0.000327806
0.000339438
0.000346539
0.000360098
0.000367769
0.000384357
0.000396679
0.000419546
0.000433304
0.000454894
0.000464062
0.00049619
0.000522232
0.000562061
0.00058704
0.000634359
0.000661762
0.000744619
0.000815856
0.00108006
0.00154333
0.00247708
0.00369443
0.00471854
0.00525572
0.00531385
0.00405181
0.00264182
0.00222989
0.00229829
0.00247268
0.00225728
0.00180346
0.00190185
0.00188705
0.00183671
0.0017899
0.00174757
0.00169979
0.00166562
0.00163664
0.00161375
0.00159548
0.00159406
0.00160189
0.00162098
0.00163427
0.00163597
0.00162405
0.00161075
0.0015956
0.00157715
0.00155129
0.00152107
0.00147439
0.00140962
0.00136034
0.00132009
0.00125603
0.00119456
0.0011889
0.00118673
0.00118361
0.001189
0.00120377
0.00125712
0.0013965
0.00161646
0.00182893
0.00204674
0.00216551
0.00231403
0.00253203
0.00283518
0.00317437
0.00372813
0.00479918
0.00597914
0.00650219
0.00683759
0.00735086
0.00770841
0.00818928
0.0087449
0.0101156
0.0115129
0.0117869
0.0113845
0.0117642
0.0112581
0.010321
0.00858327
0.00494051
0.00193416
0.00114669
0.00101845
0.000878027
0.000719152
0.00058271
0.000479003
0.000409477
0.000360812
0.000325555
0.000298698
0.000282134
0.00026505
0.000238554
0.000217039
0.000218628
0.000225005
0.000213614
0.000197053
0.000195327
0.000203085
0.000203735
0.000197618
0.00019369
0.000193124
0.000191768
0.00019041
0.000188149
0.000185833
0.00018244
0.000179083
0.000176462
0.000173664
0.000170897
0.000167733
0.000164988
0.000162226
0.00016047
0.000159249
0.000160162
0.000162423
0.000168021
0.000176022
0.000191214
0.000215442
0.000242394
0.000263558
0.000287324
0.000313091
0.000340261
0.00036903
0.00040078
0.000432669
0.000463862
0.000489781
0.000517934
0.000530115
0.000556448
0.000570121
0.000593273
0.000611755
0.000650054
0.000664738
0.000691808
0.000698553
0.000721539
0.00071433
0.000738271
0.000728347
0.00074144
0.000723218
0.000753877
0.000746523
0.000782859
0.00077811
0.000813354
0.000807945
0.000830469
0.000861181
0.000842039
0.000961247
0.000942485
0.0010812
0.00105882
0.00110202
0.00113365
0.00106002
0.00091564
0.00086836
0.000701557
0.000583918
0.00046826
0.000348435
0.000261572
0.000215843
0.000197106
0.000192682
0.000195602
0.000208961
0.000219054
0.000233212
0.000244509
0.000248151
0.000269871
0.000245469
0.000284161
0.000215799
0.000292178
0.000275752
0.00023818
0.000200414
9.3571e-05
0.000158002
0.000158048
9.35562e-05
0.000200387
0.000238185
0.000275718
0.000292169
0.000215809
0.000284189
0.000245479
0.000269838
0.000248106
0.000244489
0.000233167
0.000219079
0.000208973
0.000195779
0.00019334
0.000198412
0.000218065
0.000264548
0.0003538
0.000468301
0.000583611
0.000697376
0.000854047
0.000886914
0.000987125
0.00103568
0.00102376
0.00101733
0.00101827
0.000953811
0.00103968
0.00095956
0.000948456
0.000903875
0.00087339
0.000846099
0.00081448
0.000795906
0.000766914
0.000753238
0.000726912
0.000715397
0.000692286
0.000681681
0.000661466
0.000651537
0.00063397
0.00062445
0.000608958
0.000599887
0.000586176
0.000577604
0.000565216
0.000556684
0.000545541
0.000537444
0.00052777
0.000520039
0.000510627
0.000503347
0.000495
0.000487479
0.000479436
0.000472467
0.000464839
0.00045772
0.000450795
0.000444042
0.000437365
0.000430986
0.000424681
0.000418374
0.000412663
0.000406838
0.000401427
0.000396178
0.000390958
0.000386187
0.000381605
0.000377482
0.000373211
0.000369272
0.000365174
0.000361854
0.000358284
0.000355423
0.000352682
0.000350234
0.000347604
0.000345234
0.000343194
0.000341563
0.000340158
0.000339003
0.000338293
0.000337949
0.000338071
0.000338542
0.000339421
0.000341137
0.000343221
0.000345388
0.000348532
0.000352689
0.000357241
0.000362189
0.000368277
0.000375194
0.000383277
0.000392153
0.000401992
0.000413686
0.000425732
0.000438084
0.000451739
0.000466736
0.0004823
0.000495498
0.000506347
0.00051385
0.000519139
0.000519994
0.000513781
0.000493935
0.000497366
0.000467395
0.000462908
0.000443417
0.000428681
0.000412074
0.000398115
0.000385248
0.000374636
0.00036235
0.000351649
0.000342067
0.000333809
0.000326517
0.000320464
0.000314291
0.000308026
0.000303258
0.000299032
0.000295988
0.000292904
0.000291451
0.000288721
0.000287852
0.000286153
0.000287073
0.000286322
0.000288448
0.000288482
0.000292144
0.000293212
0.000298321
0.000300099
0.000306584
0.000310816
0.000320798
0.000326359
0.000337648
0.000344385
0.000357645
0.000365325
0.000381522
0.000392358
0.000411845
0.000421778
0.00044532
0.0004638
0.000492863
0.000502615
0.00052984
0.000551957
0.000614711
0.000664514
0.000739852
0.000858707
0.00101268
0.00139222
0.00170644
0.00240517
0.00318168
0.00362567
0.00413232
0.00351313
0.00249224
0.00213818
0.00222444
0.0024116
0.00222164
0.00179916
0.00190409
0.0018853
0.00183586
0.00178689
0.00175132
0.00170234
0.00166609
0.00163681
0.00161419
0.00159514
0.00159434
0.00160206
0.00162032
0.00163373
0.00163537
0.00162336
0.00160974
0.00159443
0.00157613
0.00155067
0.00152022
0.00147326
0.00140902
0.00136023
0.00131975
0.00125541
0.0011941
0.00118921
0.00118711
0.00118372
0.00118898
0.00120363
0.00125693
0.00139636
0.0016162
0.00182778
0.00204531
0.00216357
0.00231167
0.00253024
0.00283346
0.00317248
0.00372669
0.00479724
0.00597546
0.00649377
0.00682822
0.00734082
0.00769846
0.00817934
0.00873605
0.0101044
0.0115007
0.0117776
0.0113634
0.011746
0.0112491
0.0103135
0.00857804
0.00493126
0.00192579
0.00114018
0.001011
0.000871494
0.000714221
0.000578949
0.000476238
0.000407364
0.000359188
0.00032432
0.000297667
0.000280852
0.00026375
0.000238195
0.000217272
0.000218303
0.00022382
0.000213006
0.000197305
0.000195444
0.000202461
0.000202948
0.000197283
0.000193536
0.000192876
0.000191469
0.000190114
0.000187865
0.000185553
0.000182246
0.000178959
0.000176318
0.000173485
0.000170713
0.000167569
0.00016484
0.000162094
0.000160366
0.000159177
0.000160135
0.000162427
0.000168037
0.000176014
0.00019089
0.000214242
0.000239526
0.000260492
0.000285105
0.000310852
0.000338291
0.000367548
0.000399598
0.000431417
0.000461872
0.000486641
0.000514493
0.000526286
0.00055357
0.000567835
0.000592302
0.000611488
0.000648464
0.000662705
0.000688679
0.000696286
0.000719529
0.000711717
0.000736549
0.000725349
0.000738662
0.000721558
0.000754653
0.000745967
0.000784449
0.000780489
0.000817548
0.000813915
0.000846909
0.000872057
0.000899804
0.00100091
0.00107833
0.00108969
0.00110659
0.00113358
0.00113902
0.00110202
0.00105141
0.000856407
0.000687191
0.000573472
0.000463382
0.000366645
0.000263101
0.000217592
0.00019966
0.000194091
0.000195043
0.000209703
0.000220118
0.000237343
0.000247169
0.000251284
0.000271994
0.00024665
0.000285571
0.000217569
0.0002939
0.000276573
0.000239551
0.000200257
9.39209e-05
0.000158173
0.000158161
9.38393e-05
0.000200189
0.000239395
0.00027639
0.00029371
0.000217367
0.000285109
0.000246512
0.000271863
0.000251132
0.000247039
0.000237252
0.000220144
0.000210106
0.000196017
0.000195498
0.000201937
0.000220965
0.000269249
0.000367397
0.000466106
0.000570186
0.000684551
0.000810519
0.000888466
0.00097627
0.000994816
0.00103396
0.00105039
0.00106037
0.00102037
0.000978879
0.000992718
0.000916553
0.00091228
0.000857537
0.000846752
0.000806719
0.000794023
0.000763158
0.000750675
0.000724982
0.000713054
0.000691116
0.000679823
0.000660602
0.000650075
0.000633237
0.000623327
0.000608294
0.000598989
0.000585611
0.000576892
0.000564569
0.000556018
0.000544994
0.000536945
0.000527279
0.000519539
0.000510138
0.000502932
0.000494543
0.000487077
0.00047906
0.00047214
0.000464511
0.000457443
0.000450523
0.0004438
0.00043714
0.000430778
0.000424486
0.000418217
0.00041251
0.000406712
0.000401302
0.00039607
0.000390852
0.000386089
0.000381507
0.000377362
0.00037309
0.000369115
0.000365041
0.000361727
0.000358167
0.000355324
0.000352579
0.000350158
0.000347572
0.000345224
0.000343176
0.000341552
0.000340118
0.000338939
0.000338213
0.000337874
0.000337993
0.000338499
0.000339439
0.000341171
0.000343286
0.000345428
0.000348571
0.000352703
0.000357202
0.000362187
0.000368317
0.00037523
0.000383303
0.000392157
0.000401969
0.000413656
0.000425639
0.00043805
0.000451531
0.000466629
0.000482044
0.000495316
0.000505894
0.000513992
0.000518604
0.000519348
0.000513186
0.000493129
0.000496637
0.000466623
0.000462163
0.000442745
0.00042806
0.000411478
0.000397596
0.000384719
0.00037414
0.000361868
0.000351219
0.000341647
0.000333422
0.000326109
0.000320063
0.000313883
0.000307648
0.000302866
0.000298635
0.000295573
0.000292458
0.000290977
0.000288226
0.000287346
0.000285608
0.000286495
0.000285691
0.00028779
0.000287773
0.000291401
0.000292411
0.000297484
0.0002992
0.000305647
0.000309754
0.000319567
0.000324936
0.000336062
0.000342662
0.000355804
0.000363413
0.000379396
0.000390359
0.000410975
0.000423603
0.000445607
0.00045729
0.000485986
0.000510144
0.000548531
0.000579726
0.000616557
0.000661334
0.000726399
0.00081893
0.0010122
0.00129757
0.00174217
0.00218374
0.00302763
0.00344326
0.00389062
0.00331909
0.00245336
0.00209723
0.00215182
0.002325
0.00215683
0.00175945
0.00187864
0.00186292
0.00182026
0.00177981
0.00173037
0.0016915
0.00166397
0.00163399
0.00160966
0.00159244
0.0015907
0.00159887
0.00161858
0.00163178
0.00163334
0.00162121
0.0016086
0.00159392
0.00157516
0.00154935
0.00152038
0.0014745
0.00140907
0.00136001
0.00132025
0.00125575
0.00119406
0.00118806
0.00118604
0.00118323
0.00118854
0.00120276
0.00125532
0.0013952
0.0016165
0.00182959
0.00204598
0.00216335
0.00231068
0.00252859
0.00283352
0.00317219
0.00372374
0.0047999
0.00598702
0.00650223
0.00682951
0.00734136
0.00769832
0.00817944
0.00873431
0.0101043
0.01152
0.0117951
0.0113641
0.0117503
0.0112634
0.0103448
0.00864054
0.00498495
0.0019438
0.00114798
0.00101414
0.000870801
0.000712705
0.000577215
0.000474675
0.000405952
0.000358088
0.000323448
0.000296942
0.000280108
0.000263065
0.000237967
0.000217174
0.000217883
0.000223199
0.000212632
0.00019719
0.000195238
0.000202063
0.000202561
0.00019703
0.000193301
0.000192597
0.00019117
0.000189808
0.000187564
0.000185265
0.000182003
0.000178758
0.000176131
0.000173314
0.000170547
0.000167396
0.000164654
0.000161909
0.000160182
0.00015901
0.000159955
0.000162241
0.000167901
0.00017616
0.000191463
0.000215507
0.000242028
0.000263048
0.000286131
0.000311637
0.000338677
0.000367093
0.000397928
0.000428496
0.000458801
0.000482632
0.000509229
0.000521769
0.000547137
0.000562337
0.000587349
0.000605666
0.000641122
0.00065535
0.000682781
0.000687941
0.000711756
0.00070614
0.000729412
0.000721097
0.000740682
0.000727004
0.00075701
0.000751303
0.000786913
0.000785109
0.000822419
0.000824785
0.000857064
0.000875841
0.000914259
0.000985057
0.00108579
0.00107794
0.001136
0.00113674
0.00115217
0.00108641
0.000951508
0.00090446
0.000694824
0.000585172
0.000466683
0.000344532
0.000258253
0.000213433
0.000195747
0.000192009
0.000195299
0.000208922
0.000218979
0.000233186
0.00024449
0.000248164
0.000269885
0.00024541
0.000284117
0.000215808
0.000292191
0.000275794
0.000238171
0.000200456
9.3595e-05
0.000157967
0.0001581
9.35419e-05
0.000200358
0.000238214
0.000275684
0.000292198
0.000215844
0.000284546
0.000245576
0.000269913
0.000248153
0.000244525
0.000233218
0.000219216
0.000208997
0.000195979
0.000194008
0.000199126
0.000219785
0.000267405
0.000357373
0.000468006
0.00058172
0.000689116
0.000828856
0.000858969
0.000923053
0.000959912
0.000956278
0.00096047
0.000961617
0.000964882
0.000962802
0.000922258
0.000913982
0.000876892
0.000858339
0.000830716
0.000807071
0.000787228
0.000762486
0.0007475
0.000723786
0.000711748
0.000689796
0.000679089
0.00065944
0.000649608
0.000632227
0.000622858
0.000607448
0.000598508
0.000584781
0.000576272
0.00056403
0.000555688
0.00054459
0.000536456
0.000526661
0.00051896
0.000509733
0.000502389
0.000494057
0.000486684
0.000478739
0.000471746
0.000464233
0.000457203
0.000450286
0.000443568
0.000436953
0.00043057
0.000424329
0.000418072
0.000412382
0.000406579
0.000401205
0.00039597
0.000390813
0.000386053
0.000381461
0.000377344
0.000373067
0.000369206
0.000365091
0.00036177
0.000358205
0.000355322
0.000352551
0.000350063
0.000347436
0.000345091
0.000343075
0.000341451
0.000340104
0.000338997
0.000338309
0.000337965
0.000338096
0.000338562
0.00033941
0.000341091
0.000343133
0.000345454
0.000348724
0.000352803
0.000357259
0.0003622
0.000368283
0.000375194
0.000383264
0.000392112
0.000401936
0.000413577
0.000425567
0.000437782
0.000451492
0.000466268
0.000481846
0.00049487
0.000505778
0.000512678
0.000518379
0.000519156
0.000513
0.000493301
0.000496704
0.000467101
0.000462395
0.000442975
0.000428349
0.000411784
0.00039791
0.000385019
0.000374397
0.000362144
0.000351497
0.000341914
0.000333659
0.00032634
0.000320236
0.00031405
0.000307812
0.000303024
0.000298757
0.000295666
0.000292516
0.000290975
0.000288211
0.000287314
0.000285548
0.000286363
0.000285519
0.000287545
0.000287488
0.000291005
0.00029195
0.000296896
0.00029863
0.000305007
0.000308906
0.000318341
0.000323516
0.000334342
0.000340614
0.000353345
0.000360637
0.000376001
0.000385651
0.000404013
0.000413895
0.000436211
0.000451629
0.000479208
0.000492048
0.000529433
0.000554214
0.00060887
0.000639609
0.000728574
0.00080478
0.000982424
0.00114815
0.00159437
0.00183307
0.00238455
0.00273288
0.00320703
0.00293209
0.0023035
0.00201342
0.00207044
0.00224702
0.00210132
0.00174688
0.00186708
0.00184994
0.00181037
0.00176691
0.00173893
0.00169181
0.00166455
0.00163081
0.00161077
0.00159079
0.00159244
0.00160035
0.00161857
0.00163222
0.00163358
0.00162107
0.00160692
0.0015911
0.00157267
0.00154781
0.00151762
0.00147037
0.00140696
0.00135945
0.00131836
0.00125234
0.00119121
0.00118824
0.00118664
0.00118307
0.00118816
0.00120213
0.00125472
0.00139481
0.00161667
0.0018283
0.00204531
0.00216147
0.00230799
0.00252782
0.00283271
0.00317171
0.00372522
0.00480531
0.00599924
0.00650389
0.0068278
0.00733862
0.00769705
0.00817745
0.00873262
0.0101072
0.0115276
0.0118017
0.0113543
0.0117437
0.0112752
0.0103722
0.00868938
0.00501348
0.00194937
0.00115031
0.0010113
0.000865812
0.000708446
0.000573798
0.000471914
0.000403838
0.000356409
0.000322175
0.000295852
0.00027877
0.000261754
0.000237348
0.00021709
0.000217517
0.000222212
0.000212141
0.000197344
0.000195285
0.000201523
0.000201849
0.00019662
0.000193044
0.000192303
0.000190873
0.000189536
0.000187325
0.000185031
0.000181824
0.000178607
0.000175946
0.000173073
0.000170277
0.000167149
0.000164444
0.000161733
0.000160055
0.000158909
0.000159878
0.000162187
0.000167824
0.000175993
0.000190717
0.00021312
0.000237255
0.000258284
0.000282477
0.000308117
0.0003357
0.000364936
0.000396343
0.000426863
0.000456901
0.00048083
0.000508731
0.000521671
0.000547925
0.000563523
0.000589588
0.000607934
0.000641383
0.000655364
0.000682503
0.000688896
0.000713404
0.000707479
0.000731592
0.000721158
0.000741777
0.000728098
0.000761782
0.000754076
0.000795248
0.000791255
0.000836483
0.000831455
0.000882067
0.000880827
0.000949636
0.000992286
0.00106092
0.00108326
0.00112104
0.001129
0.00117554
0.00110301
0.00105842
0.000860698
0.000688348
0.000574671
0.00046007
0.000363587
0.000263445
0.000216063
0.000198435
0.00019336
0.00019459
0.000209534
0.000220136
0.000237517
0.000247258
0.000251421
0.000272052
0.000246805
0.000285834
0.000217671
0.000294
0.000276662
0.000239643
0.000200287
9.39606e-05
0.000158178
0.00015816
9.38015e-05
0.000200159
0.000239318
0.000276327
0.000293614
0.000217269
0.000284686
0.000246412
0.000271749
0.000251017
0.000246951
0.000237169
0.000220113
0.000210321
0.000196447
0.000196178
0.000203376
0.000222951
0.000272387
0.000366807
0.000465846
0.000568036
0.000681636
0.000794586
0.000859
0.000933389
0.000945723
0.000982941
0.000986262
0.000984396
0.000962842
0.000941828
0.000934042
0.000890479
0.0008837
0.000841005
0.000832235
0.000796169
0.000785735
0.000756096
0.000745094
0.000720244
0.000709025
0.000687694
0.000676653
0.00065811
0.000647511
0.000631273
0.000621158
0.000606664
0.000597145
0.000584136
0.000575188
0.000563236
0.000554702
0.00054389
0.000535777
0.000526067
0.000518329
0.000509112
0.000501889
0.00049348
0.000486188
0.000478243
0.000471343
0.000463788
0.000456852
0.000449927
0.000443269
0.000436654
0.000430313
0.000424076
0.000417889
0.000412186
0.000406439
0.000401041
0.000395833
0.000390643
0.000385899
0.000381295
0.00037711
0.000372826
0.000368842
0.000364813
0.000361497
0.00035797
0.000355142
0.000352375
0.000349982
0.000347455
0.000345138
0.000343081
0.000341459
0.000340003
0.000338819
0.000338084
0.000337763
0.000337893
0.000338469
0.000339477
0.000341201
0.00034332
0.000345498
0.000348726
0.00035278
0.00035716
0.000362207
0.000368375
0.000375274
0.000383323
0.000392127
0.000401899
0.000413544
0.000425417
0.000437803
0.000451106
0.000466196
0.000481419
0.000494684
0.000505
0.000513317
0.000517404
0.000518057
0.000511927
0.000491828
0.000495366
0.000465608
0.000461027
0.000441724
0.000427202
0.000410687
0.000396938
0.000384049
0.000373498
0.000361283
0.000350725
0.00034117
0.000332983
0.000325652
0.000319574
0.000313387
0.000307206
0.00030242
0.000298161
0.000295068
0.000291898
0.000290343
0.000287568
0.000286677
0.000284883
0.000285687
0.000284803
0.000286826
0.000286722
0.000290233
0.00029112
0.000296047
0.000297718
0.00030408
0.000307883
0.000317202
0.000322214
0.000332933
0.000339118
0.00035178
0.000359082
0.000374381
0.00038434
0.000403382
0.000414916
0.000435997
0.000448232
0.000474636
0.000496202
0.000529978
0.000559143
0.000594976
0.000641078
0.000703131
0.000796828
0.000944589
0.00111573
0.00145978
0.00164724
0.00230612
0.00258795
0.00305525
0.00277924
0.00226988
0.00197239
0.00200601
0.00215056
0.00202609
0.00169556
0.00183233
0.00181478
0.00178746
0.001758
0.00171013
0.00169009
0.00165878
0.00163269
0.00160375
0.0015913
0.00158562
0.00160151
0.00161461
0.00163242
0.0016314
0.00162312
0.00160578
0.00159019
0.00157076
0.00154644
0.00151848
0.00147382
0.00140761
0.00135922
0.00131924
0.00125332
0.00119157
0.00118594
0.00118443
0.00118215
0.00118749
0.00120094
0.00125222
0.0013924
0.00161772
0.00183155
0.00204618
0.00216101
0.00230756
0.00252714
0.00283399
0.00317147
0.00372512
0.00481592
0.00602121
0.00651761
0.00683252
0.00734278
0.00769976
0.00818044
0.00873502
0.0101162
0.0115608
0.0118326
0.0113634
0.011756
0.0113033
0.0104279
0.00879374
0.00510052
0.00197833
0.00116545
0.00101821
0.000866621
0.00070756
0.000572161
0.000470254
0.000402076
0.00035503
0.000321053
0.00029492
0.000277871
0.000260889
0.000237159
0.000217028
0.000216881
0.000221351
0.000211544
0.000197073
0.000194903
0.000200963
0.000201362
0.000196311
0.000192728
0.000191898
0.000190404
0.000189028
0.000186798
0.000184518
0.000181375
0.00017824
0.000175629
0.000172822
0.000170063
0.000166922
0.000164176
0.00016145
0.000159747
0.000158623
0.000159597
0.00016193
0.000167649
0.000176091
0.000191142
0.000213912
0.000238904
0.000260134
0.000283173
0.00030828
0.000335135
0.000363398
0.000393572
0.000422927
0.000452632
0.000475816
0.000502591
0.000517488
0.000542496
0.000557872
0.00058336
0.000601242
0.000634084
0.000647581
0.00067533
0.000680408
0.00070547
0.000701899
0.000725791
0.000718636
0.000742099
0.000732821
0.000764387
0.000761416
0.000799755
0.00080194
0.000844274
0.000850866
0.000893389
0.000909523
0.00095717
0.00099914
0.00106319
0.00107995
0.00113123
0.00110306
0.00114454
0.00107363
0.000967586
0.000889767
0.000688155
0.000583839
0.000463853
0.0003409
0.00025297
0.000211297
0.000194635
0.00019148
0.00019505
0.000208859
0.000218902
0.000233122
0.000244478
0.000248129
0.000269925
0.000245324
0.000284039
0.000215818
0.000292193
0.000275829
0.000238147
0.000200488
9.36108e-05
0.000157918
0.000158146
9.35243e-05
0.000200316
0.000238212
0.000275629
0.000292184
0.000215801
0.000284574
0.000245606
0.000269873
0.000248136
0.000244527
0.00023326
0.000219261
0.000209022
0.000196277
0.000194602
0.000200239
0.000221736
0.000270353
0.000359988
0.000467295
0.000578227
0.000682091
0.000804808
0.000832251
0.000884178
0.000911378
0.000921979
0.000920135
0.000926955
0.000920287
0.000914656
0.000889101
0.000880681
0.000851304
0.000837823
0.000812701
0.000794714
0.000775092
0.000754816
0.000739531
0.00071839
0.000705936
0.000685673
0.000675004
0.000656205
0.000646515
0.000629536
0.000620405
0.000605201
0.000596476
0.000582863
0.000574489
0.000562368
0.000554187
0.000543201
0.000535136
0.000525337
0.000517671
0.000508612
0.000501253
0.000492991
0.00048572
0.000477891
0.000470899
0.000463504
0.000456561
0.000449683
0.000443007
0.000436463
0.000430082
0.000423914
0.000417704
0.000412052
0.000406272
0.000400953
0.000395728
0.000390639
0.000385888
0.00038129
0.000377187
0.000372904
0.000369133
0.000364985
0.000361668
0.000358105
0.000355192
0.000352387
0.000349852
0.000347221
0.000344902
0.000342922
0.000341313
0.000340046
0.000338996
0.000338336
0.000337996
0.000338142
0.000338603
0.000339409
0.000341058
0.000343058
0.000345545
0.000348947
0.000352948
0.000357312
0.000362238
0.000368299
0.000375201
0.000383247
0.000392057
0.000401869
0.000413443
0.000425348
0.000437396
0.000451158
0.000465695
0.000481281
0.000494131
0.000505071
0.000511314
0.000517338
0.000518113
0.000511979
0.000492388
0.000495819
0.000466624
0.000461649
0.000442303
0.000427818
0.000411288
0.000397522
0.000384602
0.000373977
0.000361759
0.000351181
0.000341601
0.000333359
0.000326008
0.000319852
0.000313651
0.000307451
0.000302646
0.000298336
0.000295201
0.00029198
0.000290356
0.000287554
0.000286633
0.000284795
0.000285512
0.000284571
0.000286504
0.000286348
0.000289727
0.00029054
0.000295323
0.000296976
0.000303213
0.000306797
0.000315736
0.000320525
0.000330886
0.000336702
0.000348873
0.000355709
0.000370259
0.000378941
0.000396209
0.000405611
0.000426461
0.000439642
0.000465363
0.000478538
0.00051336
0.000535674
0.00058762
0.000620454
0.000697623
0.000761765
0.000895893
0.00101522
0.00130617
0.0014759
0.00185268
0.00213768
0.00253183
0.00244713
0.00210135
0.00188387
0.00191217
0.0020601
0.00195679
0.00168037
0.00180912
0.00179525
0.00177464
0.00173902
0.00171859
0.00167348
0.00165614
0.00162708
0.00160728
0.00158269
0.00158841
0.00159448
0.00161843
0.0016283
0.00163335
0.00161898
0.00160665
0.00158762
0.00157068
0.00154406
0.0015186
0.00146992
0.0014075
0.00135785
0.00131683
0.00124844
0.00118788
0.0011867
0.00118598
0.00118214
0.00118713
0.00119933
0.0012501
0.001391
0.00162133
0.00182984
0.00204659
0.00216004
0.00230476
0.00252593
0.00283458
0.00317228
0.00372703
0.00483014
0.00604841
0.006529
0.00683738
0.00734641
0.00770589
0.00818613
0.00873958
0.0101296
0.0115901
0.011858
0.0113632
0.0117612
0.0113376
0.0104943
0.00890623
0.00518559
0.00200186
0.00117717
0.00101971
0.00086254
0.000703809
0.000568995
0.000467406
0.000399884
0.000353174
0.000319644
0.000293671
0.000276256
0.000259337
0.00023619
0.000216589
0.000216303
0.000220239
0.000211061
0.000197154
0.000194793
0.000200238
0.00020044
0.00019562
0.000192178
0.000191355
0.000189915
0.000188601
0.000186446
0.000184181
0.000181084
0.000177933
0.000175257
0.000172353
0.000169542
0.000166452
0.000163801
0.00016116
0.000159566
0.00015849
0.000159486
0.000161835
0.000167511
0.000175814
0.000190169
0.000211326
0.000234297
0.000255556
0.000279483
0.000304779
0.000332035
0.000360757
0.00039125
0.000420193
0.000449557
0.00047333
0.000501255
0.000516563
0.000542985
0.000559066
0.000585247
0.000602238
0.000632907
0.000646048
0.000673817
0.000679979
0.00070602
0.000702236
0.000727676
0.000718535
0.000744
0.000732947
0.000768611
0.000761832
0.00080728
0.000803058
0.000856331
0.000851169
0.000913334
0.000908762
0.000981067
0.000988191
0.00106061
0.00106093
0.00111687
0.00107512
0.00113789
0.00109566
0.00104922
0.000860197
0.000678942
0.000573659
0.000456165
0.00036
0.000261139
0.000214602
0.000197301
0.000192661
0.000194156
0.000209416
0.000220138
0.000237618
0.000247345
0.000251595
0.000272176
0.000246915
0.00028605
0.000217781
0.000294089
0.000276755
0.000239729
0.000200321
9.4e-05
0.000158184
0.000158163
9.37642e-05
0.000200131
0.000239262
0.000276265
0.000293531
0.000217215
0.000284484
0.000246351
0.000271711
0.00025095
0.000246898
0.000237065
0.000220142
0.000210546
0.000196895
0.000197003
0.000204628
0.000224957
0.000275445
0.000367616
0.000464559
0.000566241
0.000676163
0.000775666
0.000830913
0.000890269
0.00090889
0.000934276
0.000930314
0.000932886
0.000913353
0.000905095
0.000888289
0.000864862
0.000852132
0.000823035
0.000812152
0.000783413
0.000772855
0.000746928
0.000736237
0.000713545
0.000702597
0.000682827
0.000671775
0.000654471
0.000643647
0.000628429
0.000618008
0.000604361
0.000594538
0.000582156
0.000572942
0.000561516
0.000552902
0.000542417
0.000534252
0.000524641
0.000516909
0.000507885
0.000500651
0.000492292
0.000485133
0.000477271
0.000470414
0.000462951
0.000456138
0.000449231
0.000442643
0.000436082
0.000429774
0.000423604
0.000417496
0.000411808
0.000406118
0.000400737
0.000395551
0.000390385
0.000385659
0.000381031
0.000376808
0.000372513
0.000368513
0.000364529
0.000361217
0.000357726
0.000354912
0.000352123
0.000349768
0.000347306
0.000345024
0.00034296
0.000341349
0.000339878
0.000338686
0.000337942
0.000337647
0.000337794
0.000338444
0.00033952
0.000341246
0.00034338
0.000345597
0.000348903
0.000352874
0.000357141
0.00036224
0.000368438
0.000375321
0.000383338
0.000392084
0.000401817
0.000413407
0.000425147
0.00043749
0.000450609
0.000465665
0.000480717
0.000493969
0.000503995
0.000512493
0.000516227
0.000516691
0.000510723
0.000490535
0.000494155
0.000464705
0.00045991
0.000440762
0.00042641
0.000409963
0.000396352
0.000383444
0.000372909
0.000360752
0.00035028
0.000340734
0.000332577
0.000325218
0.000319094
0.000312891
0.000306761
0.00030196
0.000297663
0.00029452
0.000291282
0.000289635
0.000286823
0.000285905
0.00028404
0.00028474
0.000283759
0.000285682
0.000285474
0.000288842
0.000289589
0.00029435
0.000295939
0.00030216
0.000305636
0.000314458
0.000319088
0.000329344
0.000335076
0.000347179
0.000354051
0.000368549
0.000377542
0.000395115
0.000405618
0.000425425
0.000437445
0.000461459
0.00048067
0.000510344
0.000536875
0.000572087
0.000613301
0.000670965
0.000758652
0.000869335
0.000997211
0.0012408
0.00133402
0.00183877
0.00202007
0.00243682
0.00232244
0.00206649
0.00183816
0.00185607
0.00196519
0.00188079
0.00162118
0.0017665
0.00174771
0.00174323
0.00172487
0.00167632
0.00167556
0.00165308
0.00162319
0.00160397
0.00158178
0.00158408
0.00159306
0.00161552
0.00162807
0.00163142
0.00161755
0.00160363
0.00158583
0.00156956
0.00154248
0.00151778
0.0014733
0.00140762
0.00135863
0.0013191
0.0012491
0.00118649
0.00118516
0.0011836
0.00118261
0.00118611
0.00119953
0.00124721
0.00138955
0.00162321
0.00183323
0.00204729
0.00215809
0.00230377
0.00252501
0.00283622
0.00317288
0.00372769
0.00484835
0.00608649
0.00654858
0.00684652
0.00735466
0.0077125
0.00819235
0.00874696
0.010148
0.0116432
0.0119005
0.0113826
0.011781
0.0113817
0.0105752
0.00905286
0.00530767
0.00204058
0.00120113
0.0010307
0.00086403
0.000702954
0.000567499
0.000465624
0.000397721
0.000351489
0.00031827
0.000292566
0.000275271
0.000258348
0.000236108
0.000216611
0.000215477
0.000219164
0.000210216
0.000196708
0.000194253
0.000199567
0.000199906
0.000195305
0.000191831
0.000190871
0.000189308
0.000187911
0.000185702
0.000183446
0.000180436
0.00017742
0.000174847
0.000172076
0.000169349
0.000166235
0.000163502
0.000160817
0.000159162
0.000158122
0.000159158
0.000161574
0.000167375