/*--------------------------------*- C++ -*----------------------------------*\
| =========                 |                                                 |
| \\      /  F ield         | OpenFOAM: The Open Source CFD Toolbox           |
|  \\    /   O peration     | Version:  v2006                                 |
|   \\  /    A nd           | Website:  www.openfoam.com                      |
|    \\/     M anipulation  |                                                 |
\*---------------------------------------------------------------------------*/
FoamFile
{
    version     2.0;
    format      ascii;
    class       volScalarField;
    location    "150";
    object      rho;
}
// * * * * * * * * * * * * * * * * * * * * * * * * * * * * * * * * * * * * * //

dimensions      [1 -3 0 0 0 0 0];


internalField   nonuniform List<scalar> 
93840
(
1.01409
1.0067
1.00707
0.997788
1.00775
0.996427
1.01648
1.01383
0.999878
0.988609
1.00971
0.997914
1.00767
1.00104
1.01327
1.01382
1.02376
1.02722
1.03287
1.03552
1.03464
1.03084
1.02637
1.02668
1.02225
1.02564
1.02427
1.03075
1.02532
1.0267
1.02718
1.04827
1.01799
1.03368
1.02658
1.03625
1.03154
1.03893
1.03566
1.04153
1.03861
1.04244
1.04116
1.04408
1.0428
1.04556
1.04485
1.04775
1.0466
1.04944
1.04966
1.05131
1.05076
1.05353
1.05344
1.05453
1.05339
1.05419
1.05457
1.05625
1.05583
1.05636
1.05642
1.05681
1.05604
1.05674
1.05597
1.05567
1.055
1.05484
1.05391
1.05346
1.05263
1.05174
1.05091
1.05
1.04889
1.04761
1.04612
1.04452
1.04297
1.04145
1.03974
1.03783
1.03589
1.03398
1.03183
1.02977
1.02752
1.02518
1.02229
1.01921
1.01608
1.01275
1.00931
1.00559
1.00181
0.997948
0.993914
0.989587
0.985089
0.980586
0.975925
0.968469
0.960811
0.957623
0.954687
0.948508
0.941913
0.93537
0.928987
0.922657
0.916555
0.909136
0.902585
0.896125
0.890565
0.884019
0.879496
0.875108
0.872994
0.870083
0.870982
0.869848
0.87456
0.878844
0.88276
0.89018
0.895122
0.900695
0.909968
0.915271
0.923693
0.929154
0.935519
0.943403
0.949916
0.957612
0.962738
0.969573
0.973591
0.979956
0.98598
0.992437
0.997603
1.00405
1.00887
1.0146
1.02044
1.02718
1.03313
1.03929
1.04519
1.05194
1.05809
1.06459
1.07148
1.07848
1.08565
1.09294
1.10018
1.10667
1.11399
1.12207
1.13042
1.13945
1.14898
1.15832
1.16762
1.17748
1.18899
1.20137
1.2139
1.22575
1.23913
1.25347
1.26913
1.28765
1.30392
1.32257
1.33286
1.34346
1.31441
1.26595
1.16058
1.06482
0.943932
0.86853
0.831129
0.835308
0.770079
0.717062
0.679707
0.653863
0.637313
0.620987
0.615104
0.598601
0.597611
0.590631
0.588451
0.587258
0.586284
0.584392
0.582424
0.581845
0.581412
0.580201
0.578956
0.576948
0.575206
0.573605
0.571809
0.569328
0.567544
0.566524
0.565494
0.564218
0.562748
0.56077
0.556561
0.554712
0.553641
0.553215
0.552977
0.553509
0.552475
0.553138
0.552945
0.554641
0.552915
0.549942
0.54758
0.545421
0.544296
0.544159
0.544738
0.544673
0.546125
0.545557
0.546601
0.54579
0.546557
0.547709
0.552189
0.564391
0.598388
0.647624
0.675037
0.682228
0.674906
0.677241
0.674755
0.676705
0.679614
0.687355
0.700852
0.717528
0.730671
0.739838
0.747433
0.75472
0.761521
0.768612
0.775504
0.782666
0.788754
0.795239
0.80337
0.811405
0.815022
0.818611
0.825345
0.833581
0.838775
0.842472
0.847318
0.853277
0.858703
0.863473
0.86822
0.872817
0.877428
0.88191
0.886422
0.890836
0.894954
0.898989
0.90287
0.906697
0.910404
0.913929
0.917488
0.92075
0.924136
0.927151
0.930319
0.933103
0.936134
0.938668
0.941508
0.943819
0.946503
0.948707
0.951247
0.953345
0.955639
0.957314
0.959539
0.960937
0.963241
0.964263
0.966681
0.96738
0.969875
0.969907
0.972573
0.972191
0.975282
0.9742
0.977551
0.976044
0.980096
0.977439
0.982523
0.979036
0.984819
0.980982
0.987052
0.982893
0.990104
0.984219
0.992353
0.985135
0.991629
0.988402
0.991971
0.984095
0.988682
1.01107
1.02561
1.02563
1.03044
1.02554
1.02951
1.02594
1.02961
1.03321
1.03513
1.03316
1.02741
1.02356
1.01355
1.01273
1.00099
1.00724
0.998448
1.00913
0.988414
0.998428
1.01384
1.01657
0.996371
1.00722
0.997721
1.0066
1.00607
1.01397
1.01396
1.00584
1.0066
0.997788
1.00734
0.996375
1.01663
1.01376
0.998481
0.988312
1.0091
0.998274
1.00733
1.00085
1.01289
1.01357
1.02361
1.02807
1.03307
1.0362
1.0359
1.03409
1.02877
1.03125
1.02596
1.0269
1.02379
1.02526
1.01929
1.01964
1.02083
1.02165
1.02447
1.02802
1.02825
1.03246
1.03175
1.03604
1.03505
1.03887
1.03737
1.04039
1.03955
1.04206
1.04122
1.04353
1.04298
1.04559
1.04467
1.04722
1.0476
1.04926
1.04863
1.05097
1.05115
1.05234
1.05145
1.05203
1.05221
1.05382
1.05354
1.05399
1.05402
1.0545
1.0538
1.05444
1.05376
1.05351
1.05287
1.05273
1.05187
1.05141
1.0507
1.04988
1.04909
1.04826
1.04722
1.04603
1.04465
1.04314
1.04167
1.04023
1.03863
1.03685
1.03505
1.03326
1.03125
1.02933
1.02723
1.02505
1.02239
1.01954
1.01665
1.01357
1.01039
1.00697
1.00349
0.999945
0.996247
0.992295
0.988181
0.984053
0.979813
0.973063
0.966016
0.962986
0.960268
0.954715
0.948757
0.942829
0.937056
0.931364
0.925907
0.919268
0.913443
0.907695
0.902768
0.896983
0.893038
0.889205
0.887429
0.885013
0.886026
0.885129
0.88976
0.893853
0.89792
0.904848
0.910053
0.915306
0.924444
0.929593
0.937684
0.943243
0.949231
0.957115
0.963158
0.970847
0.975724
0.982582
0.986518
0.992716
0.998518
1.00481
1.00991
1.01609
1.02094
1.02648
1.03206
1.03851
1.04415
1.05005
1.05564
1.06195
1.06779
1.07376
1.08027
1.08671
1.09319
1.09975
1.10623
1.11202
1.11862
1.1258
1.13337
1.14127
1.14963
1.15781
1.16672
1.17583
1.18658
1.19803
1.20993
1.22137
1.23402
1.24753
1.26063
1.27527
1.29037
1.29802
1.29798
1.31511
1.30057
1.26495
1.19692
1.12662
1.03596
0.959267
0.906562
0.885194
0.824366
0.779161
0.739001
0.707198
0.6847
0.665676
0.658919
0.642751
0.640539
0.632508
0.629877
0.628378
0.626109
0.62294
0.621539
0.620161
0.619206
0.617251
0.615249
0.612771
0.609851
0.607836
0.605172
0.601891
0.60007
0.598934
0.596726
0.595357
0.593286
0.591287
0.585923
0.58427
0.582206
0.581581
0.580647
0.580941
0.579343
0.579722
0.578977
0.580366
0.578211
0.575007
0.572208
0.569636
0.568309
0.567651
0.568051
0.5673
0.568787
0.567515
0.568709
0.567145
0.568169
0.568592
0.572925
0.585223
0.617635
0.663233
0.687162
0.69318
0.685965
0.688128
0.685787
0.687645
0.690447
0.698036
0.711227
0.727199
0.739605
0.748115
0.755095
0.761749
0.767976
0.774574
0.781085
0.787944
0.793862
0.80017
0.807811
0.815239
0.818661
0.822212
0.828553
0.83619
0.841131
0.844849
0.849614
0.855325
0.860522
0.865116
0.869654
0.874023
0.878377
0.882604
0.886836
0.890986
0.894869
0.898696
0.902373
0.906027
0.909547
0.912925
0.916308
0.919438
0.922654
0.925555
0.928548
0.931223
0.934066
0.936498
0.939147
0.941389
0.943881
0.946021
0.948336
0.950384
0.952459
0.954145
0.956157
0.957599
0.959675
0.960785
0.96295
0.963777
0.966032
0.966232
0.968668
0.968426
0.971286
0.97028
0.973402
0.97187
0.975681
0.972757
0.977605
0.973411
0.979388
0.974054
0.980511
0.974504
0.98173
0.974549
0.9839
0.974532
0.985241
0.971937
0.989992
0.978149
0.987664
0.992965
1.00282
1.0022
1.0177
1.01951
1.02447
1.02346
1.02561
1.0312
1.0343
1.03257
1.02698
1.02361
1.01376
1.01322
1.0009
1.00719
0.997407
1.00959
0.988531
0.999822
1.0139
1.01655
0.996475
1.008
0.997715
1.00702
1.0067
1.0141
1.0141
1.00678
1.00706
0.997839
1.00778
0.996299
1.0167
1.01384
0.999651
0.988438
1.00951
0.99786
1.00771
1.00099
1.0136
1.01425
1.02355
1.02777
1.03296
1.03663
1.03762
1.03675
1.03086
1.03026
1.02701
1.02764
1.02442
1.02867
1.02512
1.02747
1.0293
1.03316
1.02267
1.03517
1.02694
1.03602
1.031
1.03769
1.0348
1.03948
1.03735
1.04061
1.03956
1.04213
1.0414
1.04357
1.04304
1.04557
1.04478
1.04707
1.04771
1.04915
1.04867
1.05082
1.0511
1.05216
1.05145
1.05194
1.0522
1.05373
1.05355
1.05393
1.05402
1.05443
1.05388
1.05446
1.05386
1.05359
1.05302
1.05286
1.05215
1.05171
1.05103
1.05025
1.04957
1.04876
1.04781
1.04666
1.04537
1.04393
1.04255
1.04118
1.03968
1.038
1.03631
1.03463
1.03276
1.03097
1.02903
1.027
1.02452
1.02186
1.01918
1.01632
1.01339
1.01022
1.00701
1.00374
1.00034
0.996688
0.992896
0.989098
0.985183
0.97883
0.972202
0.96948
0.967055
0.961894
0.956378
0.950914
0.945603
0.940391
0.935375
0.92924
0.923845
0.918518
0.913918
0.908481
0.904797
0.901121
0.899394
0.896975
0.897982
0.897217
0.901586
0.905839
0.909557
0.916465
0.921337
0.926518
0.935394
0.940461
0.948356
0.95357
0.959666
0.966991
0.97331
0.98049
0.985365
0.991749
0.99552
1.00151
1.00706
1.01315
1.01788
1.02393
1.02843
1.03373
1.03911
1.04505
1.05056
1.05604
1.06144
1.06728
1.07264
1.07853
1.08457
1.0905
1.0969
1.10319
1.10963
1.11568
1.1222
1.1292
1.13652
1.14467
1.15324
1.16199
1.17083
1.18023
1.19085
1.20239
1.21432
1.2258
1.23929
1.25286
1.26846
1.28238
1.29982
1.31263
1.31837
1.33309
1.30674
1.27158
1.20704
1.13449
1.03791
0.9637
0.910338
0.892285
0.834794
0.787259
0.744252
0.714264
0.692688
0.674412
0.666574
0.649926
0.649136
0.641924
0.639042
0.63852
0.638681
0.63788
0.636524
0.636423
0.636387
0.636291
0.63581
0.634248
0.631791
0.63094
0.62904
0.626309
0.623518
0.622275
0.620822
0.619863
0.617261
0.615518
0.61042
0.607857
0.605645
0.605527
0.604275
0.604682
0.602702
0.603546
0.602072
0.60349
0.601054
0.597412
0.594287
0.59152
0.589789
0.589043
0.589244
0.588108
0.589487
0.587805
0.589205
0.586744
0.588482
0.586816
0.593881
0.601156
0.632458
0.681495
0.703459
0.708251
0.700049
0.701481
0.698583
0.699871
0.702189
0.709323
0.722273
0.73806
0.750053
0.75815
0.764633
0.7707
0.776335
0.782367
0.788427
0.794932
0.800607
0.80668
0.814019
0.821119
0.82431
0.82757
0.833516
0.840781
0.845471
0.849039
0.85365
0.859206
0.864271
0.868743
0.873132
0.877338
0.881504
0.885533
0.889549
0.893492
0.897173
0.900822
0.904321
0.907832
0.9112
0.914464
0.917709
0.920742
0.923822
0.926642
0.929499
0.932103
0.934799
0.937169
0.939664
0.941856
0.944182
0.946281
0.948416
0.950425
0.952322
0.953996
0.955822
0.957275
0.959156
0.960317
0.962278
0.963179
0.96523
0.965551
0.967767
0.967653
0.970251
0.96942
0.972246
0.970976
0.974307
0.97194
0.975992
0.972682
0.977478
0.973201
0.978385
0.974152
0.97864
0.97459
0.980576
0.975397
0.980129
0.977375
0.984843
0.978978
0.983413
0.986493
0.992564
0.993744
1.01045
1.01619
1.026
1.02369
1.02432
1.02857
1.03304
1.03301
1.02744
1.02333
1.01354
1.01244
1.00075
1.0071
0.997914
1.00907
0.988246
0.998372
1.01393
1.01668
0.996381
1.00721
0.997765
1.00659
1.00631
1.01397
1.01403
1.00579
1.0066
0.997748
1.0073
0.996692
1.01644
1.01341
0.99828
0.988289
1.00904
0.998394
1.00756
1.00122
1.01249
1.01384
1.02358
1.02826
1.03294
1.03689
1.03763
1.03893
1.0333
1.03418
1.03019
1.03057
1.02713
1.02884
1.02385
1.02503
1.02245
1.02958
1.02548
1.0312
1.02918
1.03418
1.03264
1.03698
1.03574
1.03934
1.03789
1.04082
1.0399
1.04246
1.04173
1.04412
1.0433
1.0459
1.04518
1.04737
1.04807
1.04969
1.0491
1.05107
1.05141
1.05262
1.05207
1.05246
1.05264
1.05416
1.05403
1.05438
1.05452
1.05499
1.05449
1.05505
1.05453
1.05428
1.05378
1.05361
1.05298
1.05252
1.05197
1.0512
1.05058
1.04981
1.04893
1.04782
1.04663
1.04524
1.04393
1.04261
1.0412
1.03961
1.03803
1.03645
1.03469
1.03301
1.03118
1.02927
1.02697
1.02448
1.02198
1.0193
1.01657
1.01361
1.01061
1.00756
1.00438
1.00099
0.99745
0.993885
0.990199
0.98421
0.977937
0.975373
0.973065
0.96825
0.96309
0.957958
0.95296
0.948059
0.943332
0.937489
0.93236
0.927237
0.922741
0.917507
0.91382
0.910187
0.908262
0.905963
0.906641
0.90568
0.910156
0.913705
0.917758
0.924181
0.929344
0.934103
0.943263
0.947785
0.955594
0.960936
0.96638
0.974058
0.979349
0.986799
0.991045
0.997702
1.00107
1.00699
1.01205
1.01796
1.02241
1.02796
1.03234
1.0373
1.04202
1.04771
1.05266
1.05788
1.06285
1.06836
1.0738
1.07908
1.08511
1.09099
1.09708
1.10318
1.1094
1.11539
1.12192
1.12917
1.13697
1.14483
1.15343
1.16192
1.17135
1.18092
1.19185
1.20334
1.21529
1.2272
1.24017
1.25392
1.26773
1.28289
1.29568
1.30712
1.31607
1.32165
1.30436
1.28025
1.22136
1.15974
1.07885
1.00993
0.950002
0.919158
0.860397
0.815829
0.770326
0.739499
0.71036
0.688098
0.678292
0.663059
0.656591
0.652341
0.64612
0.647041
0.644753
0.64414
0.642753
0.643982
0.643767
0.644445
0.644566
0.644596
0.64231
0.642614
0.641204
0.639879
0.638499
0.638728
0.63707
0.636824
0.634889
0.633752
0.628534
0.626528
0.623979
0.623782
0.622304
0.62281
0.620859
0.621485
0.62027
0.621728
0.619077
0.615888
0.612129
0.609285
0.607114
0.606401
0.606201
0.605071
0.606054
0.604439
0.605554
0.602896
0.604421
0.602125
0.609785
0.61499
0.646049
0.697334
0.718638
0.722399
0.713178
0.713852
0.71042
0.71127
0.712946
0.719703
0.732516
0.747957
0.759769
0.767491
0.773635
0.779278
0.784425
0.789957
0.795584
0.801748
0.807207
0.813087
0.820116
0.826884
0.829893
0.833024
0.838621
0.845399
0.849864
0.853348
0.857833
0.86321
0.868129
0.872508
0.876793
0.880879
0.884907
0.888792
0.892639
0.896418
0.899937
0.903448
0.9068
0.910186
0.913424
0.916587
0.919719
0.922671
0.925648
0.928399
0.931161
0.9337
0.936293
0.938599
0.940991
0.943131
0.945354
0.947394
0.94941
0.951351
0.953133
0.954768
0.956477
0.957901
0.959662
0.960802
0.962644
0.963528
0.965477
0.965815
0.967921
0.96783
0.970273
0.969521
0.972156
0.970984
0.974045
0.971899
0.975599
0.972483
0.976999
0.973132
0.978044
0.97377
0.979349
0.973477
0.980732
0.974099
0.981098
0.975676
0.983036
0.976836
0.984035
0.978286
0.987408
0.982402
0.998095
1.0039
1.01721
1.02058
1.02134
1.02686
1.03235
1.03223
1.02635
1.02351
1.0133
1.01366
1.00041
1.00726
0.997371
1.00928
0.988472
0.999414
1.0139
1.01662
0.996384
1.00811
0.997666
1.00698
1.00677
1.01405
1.01417
1.00686
1.00708
0.997875
1.00794
0.996552
1.01675
1.01428
0.999813
0.988413
1.00935
0.998548
1.00771
1.00091
1.01374
1.01412
1.02354
1.02806
1.03284
1.03721
1.03904
1.04073
1.03555
1.03337
1.03088
1.03094
1.02804
1.03211
1.02874
1.03222
1.02962
1.03384
1.02887
1.03572
1.03074
1.03751
1.03375
1.0392
1.03663
1.04092
1.03881
1.04204
1.04091
1.04344
1.04301
1.04499
1.04437
1.04691
1.04637
1.04822
1.04915
1.05054
1.05023
1.05193
1.0524
1.05344
1.05311
1.05338
1.05373
1.05512
1.05511
1.05537
1.05559
1.05601
1.0556
1.05613
1.05566
1.05545
1.05496
1.05485
1.05427
1.05384
1.05333
1.05262
1.05204
1.05132
1.0505
1.04944
1.04831
1.04698
1.04574
1.04449
1.04316
1.04165
1.04018
1.03869
1.03706
1.03548
1.03378
1.032
1.02984
1.02751
1.02518
1.02267
1.02013
1.01737
1.01458
1.01172
1.00876
1.00556
1.00224
0.998881
0.995381
0.989641
0.98366
0.981266
0.979099
0.974463
0.969548
0.964653
0.959871
0.955168
0.950566
0.94491
0.939856
0.934791
0.930287
0.925011
0.921292
0.917471
0.915451
0.912852
0.913537
0.91277
0.916826
0.920708
0.924194
0.930806
0.935301
0.940284
0.94877
0.953492
0.960979
0.965842
0.971584
0.978364
0.984216
0.990919
0.995363
1.00128
1.00451
1.01006
1.01495
1.02057
1.02472
1.03024
1.03441
1.03918
1.04382
1.04916
1.05436
1.05946
1.06443
1.06995
1.07517
1.08087
1.08655
1.09251
1.09882
1.10472
1.11092
1.11737
1.12395
1.13108
1.13846
1.14633
1.15512
1.16399
1.17293
1.18261
1.19297
1.20414
1.2161
1.2274
1.24095
1.25362
1.26908
1.27981
1.29578
1.30753
1.3111
1.31897
1.29812
1.26892
1.21497
1.1563
1.07422
1.00901
0.949005
0.921103
0.866797
0.820192
0.775333
0.742763
0.717616
0.695356
0.68163
0.665978
0.662321
0.651485
0.647269
0.647049
0.646379
0.643041
0.643651
0.643314
0.644074
0.644363
0.643985
0.644503
0.642913
0.643009
0.6416
0.640701
0.640144
0.640768
0.640438
0.641058
0.639939
0.64061
0.636011
0.635472
0.633785
0.634774
0.633994
0.635613
0.634012
0.63561
0.634519
0.636521
0.63409
0.630787
0.627217
0.624526
0.621885
0.621652
0.621034
0.620342
0.620674
0.619585
0.619984
0.617877
0.61832
0.617329
0.62176
0.628574
0.659872
0.710933
0.73493
0.737775
0.727084
0.727031
0.722851
0.723203
0.72426
0.730467
0.742918
0.758469
0.769934
0.777417
0.783275
0.788541
0.793267
0.798311
0.803494
0.809265
0.814454
0.820069
0.826829
0.83333
0.836214
0.839085
0.844298
0.850759
0.854943
0.858239
0.862527
0.867723
0.872511
0.876779
0.880947
0.884917
0.888811
0.892555
0.896243
0.899863
0.903224
0.906581
0.909785
0.913041
0.916153
0.919212
0.922232
0.925096
0.927964
0.930637
0.933295
0.935765
0.938253
0.940497
0.942791
0.944877
0.946999
0.948988
0.950898
0.952775
0.954456
0.956033
0.957637
0.959001
0.960655
0.961758
0.96349
0.964346
0.966192
0.966544
0.968526
0.968454
0.970754
0.970054
0.972564
0.971423
0.974383
0.972317
0.975846
0.973083
0.977043
0.973542
0.978282
0.974069
0.978871
0.974908
0.980135
0.975975
0.980891
0.97713
0.982912
0.978521
0.982203
0.981535
0.984463
0.982124
0.992363
0.997613
1.01403
1.01894
1.01993
1.02388
1.03077
1.03194
1.02705
1.02337
1.01319
1.01217
1.00101
1.00711
0.997962
1.00905
0.988206
0.997963
1.01402
1.01697
0.996253
1.00718
0.997667
1.00662
1.0064
1.01396
1.01399
1.00573
1.0066
0.997688
1.00719
0.996425
1.01636
1.01345
0.998538
0.98832
1.00937
0.99866
1.00755
1.00116
1.01278
1.01386
1.02356
1.02817
1.03311
1.037
1.03881
1.04268
1.03838
1.03771
1.03405
1.03464
1.03022
1.0326
1.02824
1.03075
1.0275
1.03316
1.02989
1.03483
1.03267
1.0372
1.03564
1.03936
1.0382
1.04138
1.04007
1.04279
1.04192
1.04442
1.04403
1.04608
1.04541
1.04793
1.04743
1.04939
1.05013
1.05182
1.05139
1.05304
1.05335
1.05465
1.05425
1.05461
1.05494
1.05632
1.05631
1.05662
1.05683
1.05732
1.05695
1.05746
1.05708
1.05689
1.05648
1.0563
1.05587
1.05544
1.05499
1.0543
1.05382
1.0531
1.05235
1.05135
1.0503
1.04904
1.04787
1.04668
1.04544
1.04403
1.04267
1.04127
1.03976
1.03829
1.0367
1.03505
1.03306
1.0309
1.02873
1.0264
1.02403
1.02144
1.01883
1.01615
1.01336
1.01038
1.00723
1.00403
1.00066
0.995158
0.989424
0.987108
0.984904
0.980473
0.975757
0.971015
0.966345
0.96173
0.957184
0.951533
0.946494
0.941365
0.936708
0.931408
0.92743
0.923512
0.921106
0.918608
0.918841
0.917632
0.921882
0.924859
0.928764
0.934765
0.939581
0.94388
0.952765
0.956585
0.96392
0.968925
0.97369
0.980811
0.985311
0.992282
0.996071
1.00233
1.00527
1.01085
1.01534
1.02103
1.02509
1.03035
1.03457
1.03941
1.04407
1.04965
1.05458
1.05966
1.06464
1.06999
1.07554
1.08079
1.08702
1.09302
1.09936
1.10549
1.11172
1.11771
1.12432
1.13184
1.13963
1.1473
1.15617
1.16456
1.1744
1.18371
1.19501
1.20573
1.21794
1.22875
1.24242
1.25437
1.2688
1.28129
1.29191
1.30181
1.30692
1.31552
1.2957
1.27501
1.22888
1.17844
1.10856
1.04367
0.986813
0.947136
0.893109
0.847747
0.802291
0.767583
0.739261
0.706535
0.698233
0.678533
0.67082
0.661969
0.654618
0.652392
0.652493
0.650192
0.648919
0.648348
0.649469
0.649489
0.648738
0.648495
0.646741
0.647212
0.64628
0.645353
0.643242
0.64412
0.644349
0.644634
0.64427
0.644217
0.642139
0.639461
0.639247
0.639637
0.640696
0.641873
0.642006
0.643299
0.643928
0.646566
0.644981
0.643108
0.639383
0.63733
0.634424
0.634657
0.633656
0.633632
0.633435
0.632916
0.632784
0.631117
0.631092
0.630467
0.634172
0.64058
0.672712
0.725502
0.750427
0.752603
0.740893
0.740414
0.735663
0.735892
0.736012
0.742011
0.754218
0.769303
0.780759
0.787889
0.793522
0.798504
0.802854
0.807449
0.812201
0.817606
0.822518
0.827864
0.834267
0.840489
0.843196
0.845938
0.850815
0.856756
0.860715
0.863843
0.867926
0.872891
0.877493
0.881636
0.885682
0.889523
0.893283
0.896895
0.900431
0.903899
0.907103
0.910324
0.913371
0.916483
0.919452
0.92239
0.925283
0.928052
0.930813
0.933406
0.935975
0.93837
0.940765
0.942932
0.94513
0.947149
0.949176
0.951094
0.952909
0.954704
0.956296
0.95781
0.959321
0.960626
0.962184
0.963234
0.964867
0.965662
0.967425
0.967743
0.96966
0.969534
0.971742
0.971035
0.973412
0.972323
0.975079
0.973162
0.976523
0.973735
0.977872
0.974123
0.978873
0.974885
0.979652
0.975179
0.981512
0.976064
0.981757
0.976685
0.983569
0.978416
0.984446
0.979753
0.984834
0.97976
0.987307
0.987424
1.00211
1.01271
1.01672
1.02172
1.02953
1.03125
1.02606
1.02338
1.01313
1.01409
0.999806
1.00712
0.997346
1.00908
0.988376
0.999914
1.01404
1.01655
0.996156
1.00807
0.997711
1.00694
1.00697
1.01404
1.0142
1.00686
1.00705
0.997925
1.008
0.996515
1.01684
1.0143
0.999781
0.98839
1.00922
0.99818
1.00824
1.00114
1.01385
1.01415
1.02389
1.02846
1.03248
1.03758
1.03971
1.04361
1.04066
1.03763
1.03497
1.0357
1.03217
1.03669
1.03289
1.03658
1.03265
1.03733
1.03356
1.03876
1.03524
1.04052
1.03755
1.04214
1.03972
1.04348
1.04168
1.04455
1.04354
1.04603
1.0458
1.04755
1.04711
1.04952
1.04924
1.05088
1.05174
1.05322
1.05317
1.05445
1.05492
1.05592
1.05588
1.05612
1.05663
1.05785
1.058
1.05817
1.05854
1.05894
1.05859
1.05913
1.05877
1.05869
1.05825
1.0582
1.05772
1.05733
1.05697
1.05634
1.05586
1.05522
1.05453
1.05357
1.05259
1.05139
1.05031
1.04918
1.04803
1.0467
1.04545
1.04415
1.04276
1.0414
1.03995
1.03842
1.03656
1.03454
1.03252
1.03033
1.02813
1.02571
1.02327
1.02074
1.0181
1.01523
1.01223
1.00914
1.00585
1.00049
0.99494
0.992644
0.990443
0.986023
0.981398
0.97671
0.972059
0.967429
0.962774
0.957101
0.951914
0.946683
0.94188
0.936295
0.932191
0.927886
0.925411
0.922406
0.922672
0.921575
0.9253
0.92845
0.931827
0.937833
0.941922
0.946424
0.954211
0.958304
0.965324
0.969715
0.97513
0.981471
0.986751
0.993132
0.997217
1.00303
1.00623
1.01172
1.01646
1.02185
1.02598
1.03116
1.03543
1.04017
1.04494
1.05027
1.05563
1.06065
1.06582
1.07105
1.07643
1.08195
1.08796
1.09353
1.10015
1.10604
1.11269
1.11883
1.12621
1.13261
1.14082
1.14772
1.15707
1.16499
1.17509
1.18357
1.19548
1.20477
1.21779
1.2275
1.24169
1.25239
1.26734
1.27824
1.29075
1.30053
1.30113
1.30958
1.28951
1.26361
1.21807
1.1702
1.0996
1.04102
0.980488
0.948164
0.895333
0.851344
0.804262
0.771289
0.740102
0.715758
0.698633
0.681938
0.673837
0.663808
0.655805
0.656093
0.652071
0.652091
0.648504
0.647619
0.648013
0.648709
0.647812
0.647984
0.645907
0.645484
0.644713
0.644481
0.643324
0.643253
0.643043
0.643459
0.643496
0.642908
0.639734
0.639066
0.638818
0.638736
0.63997
0.641183
0.642161
0.643277
0.644697
0.647154
0.647132
0.645398
0.643259
0.641849
0.639924
0.641189
0.641108
0.642193
0.642397
0.642879
0.642526
0.641765
0.641379
0.641484
0.644707
0.651345
0.684305
0.739711
0.76497
0.767056
0.754196
0.753473
0.748167
0.748447
0.747851
0.753934
0.765153
0.780851
0.791958
0.798884
0.804309
0.809034
0.81311
0.817304
0.821644
0.826621
0.831239
0.836274
0.842372
0.848285
0.850934
0.853439
0.857925
0.863577
0.867186
0.87008
0.873905
0.878622
0.883042
0.887036
0.890935
0.894646
0.898265
0.901732
0.905115
0.908427
0.911475
0.914527
0.917421
0.920388
0.923216
0.926035
0.928804
0.931462
0.934104
0.936601
0.939052
0.941361
0.943647
0.94574
0.947841
0.949794
0.951729
0.95359
0.955308
0.957034
0.958532
0.959976
0.961393
0.962617
0.964072
0.965066
0.966594
0.967345
0.969
0.969317
0.97111
0.970978
0.973056
0.972372
0.974648
0.973545
0.976233
0.974335
0.977603
0.974914
0.978625
0.975453
0.979554
0.976056
0.980447
0.97682
0.981386
0.977845
0.982184
0.978621
0.98345
0.980005
0.984049
0.981743
0.986175
0.980005
0.987055
0.985352
0.998061
1.00795
1.01396
1.01817
1.02756
1.03096
1.02699
1.02317
1.01292
1.0125
1.00078
1.00709
0.997708
1.00904
0.9884
0.998386
1.01425
1.01691
0.996307
1.00719
0.997776
1.00661
1.00657
1.014
1.01402
1.00569
1.00656
0.997644
1.00715
0.996445
1.01616
1.01343
0.998346
0.988361
1.00934
0.998546
1.00792
1.00108
1.01289
1.01417
1.02369
1.02813
1.03318
1.03727
1.0392
1.04502
1.04319
1.04235
1.03783
1.03969
1.03438
1.03764
1.033
1.03635
1.03314
1.03796
1.03512
1.0393
1.03742
1.04109
1.0398
1.04284
1.04169
1.04445
1.0434
1.04581
1.04494
1.04758
1.04718
1.04904
1.04864
1.05118
1.05082
1.05267
1.05321
1.05487
1.05477
1.05624
1.05628
1.05765
1.05733
1.05792
1.05833
1.0596
1.05971
1.05998
1.06026
1.06077
1.06049
1.06095
1.06069
1.06062
1.06028
1.06018
1.05986
1.05944
1.05911
1.05855
1.05814
1.05751
1.05688
1.05599
1.05509
1.05397
1.05296
1.05191
1.05084
1.04961
1.04847
1.04727
1.04598
1.04473
1.04338
1.04196
1.04027
1.03839
1.03652
1.03447
1.0324
1.03009
1.02777
1.02535
1.02282
1.02008
1.01716
1.01413
1.01084
1.00554
1.00008
0.997744
0.995344
0.990973
0.986377
0.981657
0.976942
0.972231
0.967422
0.961525
0.956074
0.950506
0.945369
0.939347
0.935108
0.930274
0.927657
0.923928
0.924621
0.921715
0.927664
0.928063
0.933388
0.937225
0.943603
0.945927
0.956277
0.957828
0.966582
0.96961
0.975956
0.981483
0.987728
0.992969
0.998287
1.00274
1.00747
1.01141
1.01753
1.02173
1.02736
1.03118
1.03679
1.04002
1.04615
1.05008
1.05691
1.06044
1.06716
1.07118
1.07834
1.08179
1.08973
1.09378
1.10181
1.10607
1.1145
1.1187
1.12758
1.13337
1.14309
1.1491
1.15965
1.16619
1.17752
1.18491
1.19735
1.20657
1.21954
1.22941
1.24236
1.25379
1.2654
1.2776
1.28664
1.29518
1.29589
1.30529
1.28364
1.26821
1.23026
1.18505
1.12848
1.0717
1.0141
0.972607
0.920035
0.877968
0.83149
0.796555
0.763388
0.730123
0.714784
0.694178
0.685417
0.672361
0.667208
0.662597
0.656955
0.657344
0.65557
0.654116
0.65247
0.652597
0.652952
0.652044
0.651573
0.650528
0.649991
0.647386
0.647659
0.647102
0.646913
0.647126
0.646585
0.646921
0.644675
0.641613
0.641157
0.64186
0.642637
0.643706
0.644414
0.645665
0.646767
0.649418
0.649744
0.64866
0.646167
0.644865
0.643126
0.644211
0.644921
0.646147
0.647141
0.648336
0.648818
0.648234
0.649108
0.648886
0.652804
0.660141
0.694505
0.752433
0.778486
0.780209
0.766472
0.765615
0.760133
0.760698
0.759234
0.766248
0.775378
0.792597
0.803782
0.810265
0.815476
0.820008
0.823847
0.827722
0.831718
0.836371
0.840699
0.845437
0.851154
0.856822
0.859261
0.86166
0.865858
0.870996
0.874407
0.877067
0.880624
0.88506
0.889241
0.893061
0.896798
0.900347
0.903813
0.907139
0.910371
0.913538
0.916435
0.919353
0.922079
0.924884
0.927552
0.93022
0.932844
0.935388
0.937908
0.940309
0.942668
0.944888
0.947075
0.949076
0.951071
0.952938
0.954768
0.956545
0.958173
0.959808
0.961226
0.962593
0.963931
0.965085
0.966453
0.967377
0.968808
0.969483
0.971049
0.971323
0.97303
0.972852
0.974821
0.974126
0.976267
0.97521
0.97764
0.975977
0.978843
0.976484
0.980004
0.97675
0.981153
0.977257
0.981968
0.977971
0.983102
0.978697
0.984073
0.979464
0.984921
0.980323
0.985957
0.981593
0.986478
0.981488
0.985256
0.982534
0.989051
0.9997
1.00958
1.0153
1.02587
1.02966
1.02557
1.02345
1.01295
1.01387
0.999823
1.00692
0.997149
1.0092
0.988216
0.999265
1.01425
1.01669
0.996294
1.00777
0.9977
1.00693
1.0071
1.01402
1.01417
1.00684
1.00702
0.997827
1.00802
0.996451
1.01688
1.01412
0.999914
0.988495
1.00907
0.998403
1.00859
1.0011
1.014
1.0142
1.02391
1.02863
1.03245
1.03792
1.03987
1.04515
1.04462
1.04298
1.03906
1.0409
1.03699
1.04161
1.03735
1.04121
1.03752
1.04193
1.03868
1.04315
1.04041
1.04459
1.04201
1.04587
1.04375
1.04697
1.04546
1.04803
1.04698
1.04966
1.04925
1.05109
1.05086
1.05315
1.0531
1.05469
1.05529
1.0567
1.05701
1.05808
1.05825
1.05925
1.05937
1.05988
1.06044
1.06155
1.06179
1.06203
1.06239
1.06282
1.06256
1.06307
1.06283
1.06285
1.0625
1.06246
1.06213
1.0618
1.06151
1.061
1.06062
1.06005
1.05949
1.05863
1.0578
1.05675
1.05582
1.05483
1.05386
1.05271
1.05166
1.05056
1.04938
1.04824
1.04701
1.04569
1.04409
1.04232
1.04055
1.0386
1.03662
1.03444
1.03221
1.02986
1.02738
1.02463
1.02173
1.01867
1.01531
1.00997
1.00455
1.00205
0.999511
0.994971
0.990265
0.985332
0.980368
0.975309
0.970145
0.963773
0.958212
0.952247
0.946767
0.94061
0.936042
0.931229
0.928238
0.92476
0.924951
0.922936
0.928296
0.929513
0.934328
0.938258
0.944042
0.946948
0.956372
0.95864
0.967462
0.969684
0.976886
0.9811
0.988283
0.993204
0.999153
1.00329
1.00796
1.01151
1.01785
1.02157
1.02748
1.03131
1.03724
1.04056
1.04663
1.05032
1.0568
1.06044
1.06715
1.07114
1.07815
1.08249
1.09012
1.09462
1.10235
1.1068
1.11415
1.11953
1.12778
1.13365
1.14268
1.14921
1.15907
1.16667
1.17679
1.18572
1.19632
1.20605
1.21714
1.22854
1.24067
1.25182
1.2643
1.27393
1.2847
1.2929
1.29126
1.29894
1.27843
1.25744
1.21811
1.17683
1.11765
1.06583
1.00767
0.970915
0.92077
0.878079
0.831659
0.797354
0.766172
0.736848
0.716901
0.699921
0.688932
0.675379
0.667555
0.665412
0.659106
0.656945
0.655753
0.654522
0.653145
0.652945
0.651329
0.6508
0.650236
0.65049
0.64929
0.647294
0.64585
0.646203
0.64571
0.646278
0.646399
0.645402
0.643849
0.641971
0.640478
0.641158
0.641546
0.642769
0.643579
0.644863
0.646452
0.648608
0.649733
0.64755
0.646152
0.644068
0.643034
0.643512
0.644705
0.645832
0.647452
0.648424
0.649613
0.649498
0.650681
0.651796
0.656217
0.664491
0.701723
0.762371
0.789125
0.791323
0.776987
0.775637
0.770909
0.770685
0.770961
0.775259
0.786679
0.80351
0.815361
0.821705
0.826732
0.831112
0.834863
0.83852
0.842241
0.846524
0.850606
0.855055
0.860483
0.865818
0.868263
0.870451
0.8743
0.879234
0.882265
0.884674
0.887937
0.892078
0.896031
0.899658
0.903211
0.906604
0.909902
0.913068
0.916142
0.919147
0.921891
0.924633
0.927208
0.929858
0.932375
0.93491
0.937394
0.939805
0.942191
0.944475
0.946695
0.948809
0.950874
0.95279
0.954678
0.956468
0.958205
0.959915
0.961444
0.963008
0.964324
0.965619
0.966856
0.967918
0.96918
0.970042
0.971372
0.971996
0.973449
0.973716
0.975284
0.975115
0.97692
0.976262
0.978269
0.977205
0.97955
0.977871
0.980692
0.978371
0.981614
0.978764
0.982391
0.979192
0.983084
0.979962
0.983998
0.980944
0.984691
0.98203
0.985246
0.982927
0.985776
0.984251
0.987224
0.983922
0.987282
0.981568
0.988217
0.994635
1.00543
1.01065
1.02308
1.02913
1.02667
1.02317
1.01283
1.01242
1.00071
1.007
0.997825
1.00915
0.988418
0.997985
1.01432
1.0169
0.996184
1.00722
0.99782
1.00663
1.00671
1.0141
1.01402
1.00563
1.0065
0.997771
1.00731
0.996326
1.01633
1.01333
0.998738
0.988425
1.00952
0.998852
1.00815
1.00098
1.01269
1.01424
1.02395
1.0283
1.0332
1.0374
1.03961
1.04586
1.04638
1.04757
1.04204
1.04447
1.03982
1.04295
1.0389
1.04184
1.03887
1.04303
1.04095
1.0445
1.04295
1.04585
1.04436
1.0472
1.04588
1.04842
1.04746
1.0498
1.0488
1.05158
1.05096
1.05293
1.05286
1.05529
1.05502
1.05704
1.05702
1.05873
1.0589
1.06041
1.05991
1.06128
1.06127
1.06213
1.06245
1.06372
1.06386
1.06417
1.06457
1.06502
1.06484
1.06526
1.06511
1.06514
1.06487
1.06486
1.0646
1.06421
1.06403
1.06357
1.0632
1.06269
1.06216
1.06139
1.06062
1.05967
1.0588
1.05789
1.05697
1.05593
1.05497
1.05395
1.05286
1.05179
1.05063
1.04939
1.04791
1.04623
1.04454
1.04267
1.04074
1.03858
1.03637
1.03401
1.03152
1.02876
1.02578
1.02264
1.01913
1.01358
1.00804
1.00531
1.00234
0.997281
0.99252
0.987334
0.982127
0.976821
0.971429
0.964958
0.95917
0.953137
0.947456
0.941522
0.936787
0.932224
0.929015
0.926208
0.925788
0.923399
0.928911
0.929959
0.934742
0.938966
0.94457
0.94718
0.957005
0.95895
0.967335
0.971117
0.976814
0.982718
0.987994
0.993669
0.998803
1.00377
1.00862
1.01267