/*--------------------------------*- C++ -*----------------------------------*\
| =========                 |                                                 |
| \\      /  F ield         | OpenFOAM: The Open Source CFD Toolbox           |
|  \\    /   O peration     | Version:  v2006                                 |
|   \\  /    A nd           | Website:  www.openfoam.com                      |
|    \\/     M anipulation  |                                                 |
\*---------------------------------------------------------------------------*/
FoamFile
{
    version     2.0;
    format      ascii;
    class       volScalarField;
    location    "150";
    object      T;
}
// * * * * * * * * * * * * * * * * * * * * * * * * * * * * * * * * * * * * * //

dimensions      [0 0 0 1 0 0 0];


internalField   nonuniform List<scalar> 
93840
(
1.00484
1.00016
0.997821
0.999861
1.00188
0.996944
0.987566
0.97721
1.00741
1.0078
0.999011
1.00633
1.01065
1.01394
1.01485
1.01449
1.01668
1.01658
1.01949
1.02099
1.02745
1.03599
1.04538
1.04622
1.05083
1.04953
1.04877
1.0488
1.04423
1.0459
1.05137
1.05617
1.05404
1.05069
1.05542
1.05317
1.05619
1.05473
1.0574
1.05598
1.05799
1.05696
1.05835
1.05752
1.05908
1.05803
1.05968
1.05892
1.06022
1.05973
1.06119
1.06066
1.06147
1.06161
1.0626
1.06211
1.06256
1.06218
1.06299
1.06314
1.06365
1.06342
1.06404
1.0639
1.06415
1.06421
1.06444
1.06419
1.06443
1.06432
1.06446
1.06429
1.06447
1.0642
1.06438
1.06418
1.06425
1.06398
1.06392
1.06357
1.06351
1.06327
1.06318
1.06287
1.06273
1.06248
1.0623
1.06205
1.06189
1.06162
1.06127
1.06075
1.06034
1.05976
1.05925
1.05853
1.05788
1.05711
1.05636
1.05541
1.05447
1.05349
1.05258
1.05045
1.04801
1.04736
1.04719
1.04568
1.04394
1.04218
1.04044
1.03861
1.03679
1.03425
1.03174
1.02909
1.02652
1.02335
1.02053
1.01767
1.01542
1.01275
1.01118
1.00894
1.0086
1.00859
1.00782
1.00887
1.00881
1.00869
1.01038
1.01032
1.01144
1.01169
1.01188
1.01311
1.01351
1.01469
1.01475
1.01564
1.01532
1.01592
1.0164
1.01713
1.01729
1.01805
1.01815
1.01858
1.01895
1.01969
1.02026
1.02097
1.02148
1.02234
1.0231
1.02402
1.02495
1.02604
1.0273
1.02849
1.02964
1.03074
1.03203
1.03355
1.03522
1.03712
1.03926
1.04158
1.04381
1.04627
1.04944
1.05292
1.05649
1.06021
1.06482
1.06974
1.07475
1.08049
1.08606
1.09117
1.09502
1.09413
1.09155
1.06769
1.04543
1.00162
0.96624
0.935259
0.929248
0.933799
0.908129
0.888874
0.876166
0.869305
0.864878
0.863653
0.865817
0.863375
0.867902
0.869882
0.873432
0.877846
0.88111
0.884374
0.887577
0.891925
0.895371
0.899139
0.902212
0.904889
0.907469
0.910062
0.912732
0.914803
0.917923
0.920545
0.924025
0.925636
0.929182
0.93027
0.93223
0.933727
0.937617
0.939303
0.943521
0.945133
0.948876
0.950278
0.954823
0.956386
0.958849
0.958193
0.959701
0.960287
0.961925
0.964971
0.966559
0.969607
0.970221
0.973636
0.973876
0.975976
0.976722
0.979086
0.983253
0.990171
1.01595
1.04213
1.04922
1.04344
1.03447
1.03234
1.02882
1.02797
1.02748
1.02948
1.03448
1.04074
1.04494
1.04729
1.04915
1.05065
1.05167
1.05237
1.05291
1.05358
1.05412
1.05522
1.05755
1.0595
1.05923
1.05899
1.06032
1.06198
1.06208
1.06174
1.06222
1.06339
1.06438
1.06524
1.06613
1.06705
1.06791
1.06876
1.06953
1.07029
1.07085
1.07146
1.07194
1.07255
1.07302
1.07362
1.07412
1.07474
1.07523
1.07588
1.07632
1.07698
1.07737
1.07801
1.0783
1.07895
1.07913
1.07983
1.07988
1.08066
1.08054
1.08128
1.08108
1.08186
1.08162
1.08243
1.08214
1.08301
1.08269
1.08346
1.0831
1.0839
1.08354
1.08428
1.08374
1.0846
1.08383
1.08448
1.08344
1.08382
1.08258
1.08265
1.08124
1.0814
1.07947
1.07982
1.07717
1.07972
1.07719
1.0766
1.07566
1.08711
1.0775
1.05964
1.05446
1.05039
1.04717
1.05011
1.04684
1.04642
1.03788
1.02811
1.02119
1.01942
1.0167
1.01672
1.0142
1.01517
1.0136
1.01109
1.0055
0.999799
1.00801
1.00816
0.977317
0.987591
0.996473
1.00108
0.9998
0.997703
1.00006
1.00482
1.00489
0.999967
0.997724
0.999875
1.00095
0.996516
0.987454
0.977343
1.00818
1.00804
0.999788
1.00576
1.01113
1.01365
1.0151
1.01424
1.01674
1.01673
1.01927
1.02029
1.02548
1.03342
1.04335
1.04449
1.04949
1.05031
1.05207
1.05281
1.05274
1.05148
1.05141
1.05259
1.0515
1.05463
1.05369
1.05592
1.05559
1.05684
1.0575
1.05763
1.05863
1.0583
1.05938
1.05912
1.06014
1.05968
1.0609
1.06062
1.06162
1.06142
1.06277
1.06246
1.06319
1.06333
1.06425
1.06405
1.06449
1.06417
1.06488
1.06509
1.0656
1.06542
1.06598
1.0659
1.06612
1.06618
1.06637
1.06614
1.06633
1.06621
1.06629
1.06608
1.06622
1.06591
1.06602
1.06576
1.06576
1.06541
1.06527
1.06485
1.06469
1.06436
1.06417
1.06374
1.06348
1.06311
1.06279
1.0624
1.06208
1.06161
1.06106
1.06032
1.05968
1.05884
1.05805
1.05704
1.05607
1.05496
1.05385
1.05252
1.05118
1.04975
1.04832
1.0456
1.04269
1.0417
1.04104
1.0389
1.03655
1.03414
1.03172
1.02916
1.02659
1.0232
1.01992
1.01647
1.01316
1.0092
1.00578
1.00233
0.99968
0.996604
0.994943
0.992548
0.992439
0.992366
0.991849
0.993147
0.993183
0.993412
0.995374
0.995442
0.996923
0.997339
0.997862
0.999349
0.999958
1.00138
1.00163
1.00276
1.00265
1.00351
1.00419
1.00512
1.00556
1.00652
1.00693
1.00762
1.00826
1.00938
1.0103
1.01141
1.01231
1.01364
1.01497
1.01636
1.01793
1.01972
1.02161
1.02345
1.02545
1.02747
1.02972
1.03228
1.03508
1.038
1.04127
1.04463
1.04803
1.05163
1.05584
1.06024
1.06476
1.06925
1.07383
1.07894
1.08345
1.08818
1.09335
1.09801
1.10042
1.10053
1.09352
1.08028
1.06413
1.02978
0.995179
0.961517
0.941164
0.931999
0.904546
0.88477
0.866137
0.85282
0.841591
0.834289
0.832309
0.826755
0.827352
0.826703
0.828032
0.831285
0.833185
0.835447
0.838703
0.842875
0.846231
0.850052
0.853606
0.856775
0.859477
0.862263
0.865339
0.867299
0.871247
0.873931
0.877844
0.879474
0.883709
0.884858
0.88733
0.888757
0.893173
0.894783
0.899754
0.901352
0.90599
0.907408
0.912791
0.914888
0.918118
0.91788
0.919722
0.920618
0.922284
0.92584
0.927624
0.93162
0.932257
0.936685
0.93674
0.939959
0.940272
0.943846
0.948132
0.955149
0.985056
1.01851
1.03104
1.0273
1.01809
1.01619
1.01261
1.01204
1.01176
1.01414
1.01987
1.02735
1.03273
1.03602
1.0388
1.04124
1.0431
1.04453
1.04562
1.04674
1.04765
1.04907
1.05186
1.05443
1.05465
1.05476
1.05646
1.05861
1.0591
1.05897
1.05961
1.06098
1.06221
1.06333
1.0645
1.0657
1.06688
1.06804
1.06913
1.07019
1.07104
1.0719
1.07262
1.07344
1.07412
1.07489
1.07559
1.07635
1.07704
1.07782
1.07846
1.07924
1.07983
1.08058
1.08109
1.08183
1.08223
1.083
1.08328
1.08409
1.08421
1.08494
1.08498
1.08571
1.08571
1.08642
1.08639
1.08711
1.08706
1.08766
1.08756
1.08818
1.08808
1.08866
1.08835
1.08917
1.08866
1.08955
1.08878
1.0899
1.08893
1.09026
1.08863
1.09054
1.08801
1.09076
1.08756
1.09132
1.08675
1.09253
1.09109
1.0949
1.08155
1.07655
1.07682
1.06987
1.05705
1.0528
1.04831
1.04793
1.04099
1.03077
1.02206
1.01967
1.01675
1.01653
1.01439
1.01486
1.01413
1.011
1.00686
0.99908
1.00781
1.00744
0.977159
0.987496
0.996887
1.00165
0.999881
0.997793
1.00017
1.00481
1.00487
1.00018
0.997852
0.999765
1.00182
0.997057
0.987353
0.977267
1.00768
1.00799
0.999179
1.00639
1.01057
1.01396
1.01468
1.01427
1.01668
1.01677
1.0192
1.02027
1.02443
1.03041
1.04105
1.04265
1.04673
1.04788
1.05004
1.05067
1.05058
1.05103
1.05324
1.05333
1.05294
1.05401
1.05488
1.05475
1.05631
1.05591
1.05763
1.05701
1.05849
1.05782
1.05922
1.05876
1.0599
1.05951
1.06058
1.06051
1.06134
1.06129
1.06254
1.06234
1.06298
1.0632
1.06405
1.06396
1.0643
1.06405
1.06469
1.06498
1.06542
1.06527
1.06577
1.06572
1.0659
1.06597
1.0661
1.06588
1.06599
1.06586
1.06589
1.06568
1.06572
1.06539
1.06543
1.06513
1.06505
1.06465
1.06443
1.06395
1.0637
1.06329
1.06299
1.06248
1.0621
1.06161
1.06116
1.06064
1.06015
1.05953
1.05879
1.05785
1.05698
1.05592
1.05487
1.0536
1.05235
1.05094
1.04952
1.04787
1.04618
1.04439
1.04257
1.03946
1.0362
1.03483
1.03374
1.03116
1.02837
1.02545
1.02253
1.01945
1.01636
1.01243
1.00869
1.00477
1.00111
0.996795
0.993201
0.989571
0.986895
0.983754
0.982238
0.979969
0.980089
0.980075
0.979889
0.981258
0.981489
0.981985
0.984073
0.984349
0.986151
0.986676
0.987625
0.989197
0.990224
0.991864
0.992455
0.993796
0.993944
0.995116
0.996039
0.997334
0.997955
0.999332
0.99995
1.00101
1.00197
1.00346
1.00476
1.0062
1.00745
1.00923
1.0108
1.01268
1.01449
1.01659
1.01871
1.02086
1.02307
1.02527
1.02749
1.03017
1.03274
1.03565
1.03873
1.04193
1.04493
1.04843
1.05207
1.05623
1.06049
1.06482
1.06945
1.07465
1.08018
1.0856
1.09023
1.09454
1.09552
1.09664
1.09167
1.07804
1.05531
1.02523
0.992446
0.962791
0.943376
0.936129
0.911498
0.89138
0.869923
0.858113
0.847241
0.838253
0.833823
0.826747
0.825708
0.822577
0.820833
0.821563
0.821698
0.822317
0.822528
0.824301
0.825245
0.826837
0.828754
0.830316
0.831544
0.833116
0.835582
0.836582
0.8395
0.841065
0.845281
0.846437
0.85018
0.851114
0.853921
0.854221
0.858847
0.860207
0.865332
0.866388
0.871397
0.87273
0.87812
0.880362
0.88404
0.883914
0.886254
0.887226
0.889149
0.892631
0.894695
0.899079
0.899941
0.90482
0.904649
0.909099
0.908263
0.915026
0.914991
0.929581
0.961478
0.991654
1.00813
1.00621
0.997955
0.997125
0.994318
0.994564
0.995047
0.998083
1.00444
1.01265
1.01871
1.02263
1.0261
1.02937
1.03209
1.03432
1.03606
1.0377
1.03901
1.04079
1.04393
1.04691
1.04754
1.04811
1.05029
1.05288
1.05372
1.05386
1.05471
1.05627
1.05767
1.05896
1.06033
1.06175
1.06317
1.06457
1.06593
1.06724
1.06834
1.06942
1.07036
1.07134
1.07222
1.07312
1.07399
1.07487
1.07571
1.07659
1.07739
1.07825
1.07901
1.07984
1.08052
1.08132
1.08192
1.08274
1.08322
1.08406
1.08439
1.08513
1.08538
1.08609
1.08631
1.08696
1.08715
1.08779
1.08795
1.08845
1.08858
1.08905
1.08921
1.08959
1.08962
1.09012
1.09009
1.09049
1.09044
1.09083
1.09078
1.09109
1.09103
1.09145
1.0909
1.09178
1.09156
1.09171
1.09171
1.09249
1.09351
1.0938
1.09057
1.08962
1.089
1.08266
1.06828
1.05936
1.05083
1.04877
1.04323
1.03264
1.02309
1.0196
1.01683
1.01679
1.01435
1.0155
1.0136
1.01118
1.00607
0.999855
1.00807
1.00817
0.977215
0.987392
0.996469
1.00111
0.999854
0.997688
1.00012
1.00484
1.00491
0.999882
0.997761
0.999936
1.00102
0.996354
0.98752
0.977136
1.0084
1.00798
0.999787
1.00566
1.01088
1.01335
1.01551
1.01409
1.0166
1.0165
1.01922
1.01983
1.02375
1.02882
1.03876
1.04133
1.04539
1.04687
1.04911
1.04953
1.0507
1.04992
1.05052
1.05167
1.05219
1.05276
1.05357
1.05418
1.055
1.05544
1.05633
1.05649
1.05728
1.05722
1.05814
1.05804
1.05893
1.05884
1.05964
1.05971
1.06048
1.06046
1.06169
1.06159
1.06218
1.06234
1.06315
1.06317
1.0635
1.06328
1.06385
1.06415
1.06455
1.06444
1.06487
1.06486
1.06499
1.06507
1.06515
1.06494
1.06499
1.06485
1.06483
1.06459
1.06459
1.06424
1.06421
1.06388
1.06373
1.0633
1.06301
1.06248
1.06215
1.06168
1.0613
1.06071
1.06023
1.05965
1.05909
1.05845
1.05783
1.05706
1.05617
1.05508
1.05403
1.05277
1.05152
1.05004
1.04856
1.04693
1.04526
1.04336
1.04142
1.03935
1.03725
1.03388
1.0304
1.02874
1.02732
1.02443
1.02137
1.01812
1.01488
1.01147
1.00808
1.00386
0.999909
0.995796
0.992016
0.987626
0.984074
0.980486
0.977917
0.974902
0.97362
0.971463
0.971835
0.971772
0.971963
0.97332
0.973859
0.974468
0.976735
0.977185
0.979111
0.979994
0.98105
0.982949
0.984048
0.985955
0.986775
0.988381
0.9889
0.990277
0.991516
0.993023
0.994134
0.99568
0.996862
0.998234
0.999687
1.00162
1.00332
1.00509
1.00673
1.00874
1.01077
1.01276
1.01501
1.01735
1.01971
1.02202
1.02426
1.02642
1.02885
1.03162
1.03436
1.0373
1.0404
1.04348
1.04685
1.0503
1.05424
1.05846
1.06251
1.06675
1.07109
1.07611
1.08066
1.08709
1.08947
1.09482
1.09632
1.09555
1.09062
1.07894
1.06238
1.03831
1.01054
0.980969
0.959323
0.945231
0.920667
0.900988
0.882047
0.865296
0.853746
0.840034
0.838134
0.827723
0.827288
0.821675
0.821267
0.8206
0.819515
0.819649
0.820661
0.818853
0.820207
0.820368
0.820476
0.820418
0.820278
0.820532
0.821885
0.821054
0.822826
0.822735
0.825569
0.825696
0.828953
0.828995
0.831477
0.83131
0.83556
0.83638
0.841425
0.842028
0.847118
0.847934
0.853381
0.855392
0.859426
0.859139
0.861744
0.862525
0.864834
0.867879
0.870352
0.874537
0.876046
0.880626
0.881004
0.885418
0.885085
0.892306
0.891454
0.908713
0.941522
0.970312
0.987603
0.987014
0.979863
0.979924
0.97806
0.979041
0.980333
0.984042
0.990914
0.999662
1.0062
1.01054
1.01449
1.01835
1.02174
1.02466
1.02698
1.02912
1.03081
1.03293
1.03632
1.03962
1.04063
1.0416
1.04415
1.04712
1.04831
1.04873
1.0498
1.05152
1.05308
1.05451
1.05604
1.05761
1.05921
1.06079
1.06235
1.06385
1.06516
1.06642
1.06754
1.06868
1.0697
1.07073
1.07173
1.07271
1.07368
1.07464
1.07556
1.0765
1.07738
1.07827
1.07907
1.07995
1.08067
1.08156
1.08218
1.08307
1.08354
1.08432
1.08471
1.08545
1.0858
1.08647
1.08679
1.08743
1.08771
1.08821
1.08845
1.08891
1.08917
1.08952
1.08969
1.09008
1.09024
1.09046
1.09069
1.09077
1.09109
1.09114
1.09142
1.09157
1.09168
1.09187
1.09209
1.092
1.09285
1.09216
1.09382
1.09362
1.09311
1.09395
1.09319
1.08995
1.07849
1.06833
1.05589
1.0506
1.04536
1.03494
1.02394
1.01989
1.01705
1.01649
1.01462
1.01438
1.01453
1.01087
1.00684
0.999195
1.00791
1.00783
0.977149
0.987381
0.996944
1.00156
0.999856
0.997746
1.00016
1.00483
1.00489
1.00016
0.997871
0.999775
1.00167
0.996759
0.987356
0.977195
1.00753
1.00799
0.999322
1.00566
1.01078
1.01404
1.01473
1.01427
1.0166
1.01667
1.01925
1.0198
1.02305
1.02663
1.03647
1.03962
1.04332
1.04483
1.04726
1.04747
1.04925
1.04919
1.05077
1.05113
1.05132
1.05213
1.05268
1.0531
1.05408
1.05413
1.05526
1.05516
1.0561
1.05593
1.05691
1.05676
1.05775
1.05762
1.05834
1.05857
1.05925
1.05926
1.06042
1.06039
1.06095
1.06112
1.06188
1.06191
1.06225
1.06203
1.06259
1.06289
1.06327
1.06314
1.06355
1.06354
1.06365
1.06371
1.06375
1.06355
1.06353
1.0634
1.06332
1.06307
1.06301
1.06265
1.06254
1.06219
1.06198
1.06151
1.06115
1.06058
1.06017
1.05963
1.05916
1.0585
1.05792
1.05725
1.05657
1.05581
1.05506
1.05416
1.05311
1.05187
1.05065
1.04922
1.04778
1.0461
1.04442
1.04258
1.0407
1.03858
1.03642
1.03413
1.03181
1.02823
1.02459
1.0227
1.02101
1.01792
1.01466
1.0112
1.00776
1.00417
1.00061
0.996262
0.992275
0.988135
0.984404
0.980093
0.976742
0.973313
0.970943
0.968084
0.967022
0.965136
0.965674
0.965766
0.966199
0.967554
0.968316
0.969074
0.971441
0.972064
0.97427
0.97515
0.976699
0.978612
0.980229
0.982308
0.983452
0.985252
0.986052
0.987747
0.989246
0.991034
0.992263
0.994098
0.995346
0.996944
0.998642
1.00061
1.00239
1.0042
1.00603
1.00805
1.00979
1.01202
1.01425
1.01635
1.01861
1.02107
1.02351
1.02578
1.02817
1.03074
1.03335
1.03641
1.03941
1.0426
1.04574
1.04922
1.05289
1.05712
1.06116
1.0657
1.06987
1.07513
1.07955
1.08602
1.08936
1.09352
1.09469
1.09395
1.0879
1.07835
1.06137
1.03689
1.01025
0.982518
0.960699
0.950157
0.926099
0.906915
0.887832
0.871804
0.859808
0.850154
0.842664
0.835351
0.83224
0.828729
0.825149
0.826692
0.824522
0.824644
0.823159
0.824669
0.823451
0.824008
0.824097
0.823054
0.823858
0.822455
0.823207
0.821394
0.822747
0.821662
0.823146
0.821754
0.823429
0.821974
0.822668
0.820823
0.823483
0.8228
0.826601
0.825997
0.830035
0.830283
0.834733
0.836233
0.840047
0.839265
0.842006
0.842242
0.84487
0.847158
0.85015
0.853557
0.855964
0.85974
0.861082
0.864685
0.865716
0.871046
0.874327
0.888568
0.921474
0.952818
0.966954
0.96771
0.961598
0.962479
0.961567
0.963122
0.965311
0.969616
0.977159
0.986475
0.993408
0.998092
1.00237
1.0067
1.01067
1.01423
1.01713
1.01978
1.02189
1.02438
1.02804
1.03163
1.03297
1.03432
1.03726
1.04061
1.04216
1.04291
1.04423
1.04614
1.04787
1.04947
1.05114
1.05287
1.05464
1.0564
1.05814
1.05983
1.06133
1.06277
1.06408
1.06537
1.06655
1.06771
1.06884
1.06993
1.07102
1.07207
1.07311
1.07413
1.07512
1.0761
1.07701
1.07796
1.07879
1.07976
1.08049
1.08144
1.08203
1.08288
1.08338
1.08418
1.08464
1.08536
1.08579
1.08645
1.08684
1.08737
1.08771
1.08817
1.08852
1.08887
1.08914
1.08949
1.08977
1.08994
1.09024
1.09037
1.09065
1.09066
1.09113
1.09109
1.09125
1.0917
1.09187
1.09213
1.09253
1.09261
1.09347
1.09386
1.09297
1.09524
1.09456
1.09336
1.08751
1.07802
1.06337
1.05346
1.04752
1.03725
1.02529
1.02036
1.01679
1.01654
1.01447
1.01571
1.01345
1.01109
1.00601
0.999804
1.00806
1.00854
0.977146
0.987122
0.996591
1.00117
0.999813
0.997636
1.00011
1.00481
1.00492
0.999852
0.997763
0.999884
1.00115
0.996652
0.987614
0.977101
1.00819
1.0079
0.999554
1.00541
1.01071
1.01333
1.01527
1.01408
1.01658
1.01638
1.01917
1.01981
1.0226
1.02532
1.03364
1.03771
1.04157
1.04296
1.04612
1.04596
1.04812
1.0472
1.04859
1.04891
1.0499
1.05021
1.05109
1.0516
1.05236
1.05275
1.0535
1.05374
1.05436
1.05447
1.0552
1.05527
1.05614
1.0561
1.05678
1.05699
1.0577
1.05771
1.05884
1.05886
1.05943
1.05952
1.06024
1.06033
1.06065
1.06045
1.061
1.06127
1.06162
1.06151
1.06187
1.06189
1.06195
1.062
1.062
1.0618
1.06175
1.06157
1.06148
1.06119
1.06108
1.06069
1.06054
1.06015
1.05988
1.05936
1.05894
1.05832
1.05783
1.05723
1.05667
1.05593
1.05526
1.05448
1.05369
1.05282
1.05193
1.0509
1.04971
1.04832
1.04693
1.04534
1.04372
1.04188
1.04001
1.03799
1.03592
1.03363
1.03129
1.02883
1.02633
1.02262
1.0189
1.01684
1.01495
1.01174
1.00839
1.00481
1.00129
0.997629
0.99404
0.989705
0.985815
0.981786
0.9782
0.974103
0.971028
0.967845
0.965683
0.96311
0.962335
0.960518
0.961342
0.961446
0.962145
0.9636
0.964709
0.96563
0.968413
0.969245
0.971654
0.973092
0.974736
0.977288
0.978944
0.981445
0.982613
0.984754
0.985754
0.987621
0.989183
0.991105
0.992475
0.994337
0.995783
0.997372
0.998918
1.00089
1.00282
1.00468
1.00648
1.00857
1.01066
1.01262
1.01483
1.017
1.0193
1.02162
1.02391
1.02628
1.02877
1.03157
1.03427
1.03745
1.04029
1.04352
1.04659
1.05035
1.05373
1.05839
1.06177
1.06679
1.07001
1.07585
1.07852
1.08521
1.08789
1.09261
1.09332
1.0926
1.0874
1.07826
1.06374
1.04399
1.0204
0.994506
0.972008
0.957191
0.933064
0.915569
0.894697
0.879366
0.864701
0.850686
0.844526
0.836282
0.832098
0.827946
0.823784
0.823773
0.822425
0.823175
0.820173
0.821625
0.820521
0.821545
0.82111
0.820726
0.821504
0.820183
0.821001
0.819631
0.819521
0.81893
0.820449
0.819526
0.820471
0.819494
0.819541
0.817314
0.817902
0.817953
0.819179
0.819037
0.82092
0.821181
0.823715
0.823964
0.827114
0.825455
0.827424
0.826797
0.829388
0.830712
0.83402
0.836472
0.839584
0.842461
0.844617
0.847314
0.849179
0.853446
0.857539
0.871377
0.903699
0.935225
0.94863
0.949608
0.944123
0.945292
0.9453
0.947074
0.950178
0.954872
0.963158
0.973021
0.980364
0.98533
0.989856
0.994544
0.998964
1.0031
1.00654
1.0097
1.01225
1.01513
1.01907
1.02293
1.0246
1.02631
1.0296
1.03334
1.03528
1.03638
1.03799
1.04012
1.04206
1.04382
1.04567
1.04755
1.04949
1.05142
1.05334
1.0552
1.0569
1.05852
1.06002
1.06147
1.06282
1.06412
1.06539
1.06659
1.06781
1.06896
1.07012
1.07123
1.07233
1.07339
1.07441
1.07544
1.07638
1.07742
1.07826
1.07929
1.07999
1.08091
1.08152
1.08238
1.08295
1.08373
1.08425
1.08497
1.08545
1.08603
1.08646
1.08695
1.08738
1.08775
1.08809
1.08845
1.0888
1.08898
1.08938
1.08943
1.08989
1.08984
1.09023
1.09044
1.09048
1.09085
1.09132
1.09132
1.09177
1.09151
1.09297
1.09244
1.09357
1.09365
1.0945
1.09464
1.09104
1.0855
1.07183
1.05834
1.05017
1.03994
1.02679
1.02044
1.01734
1.01636
1.01481
1.01422
1.01499
1.0109
1.00672
0.999392
1.008
1.00735
0.97706
0.987387
0.997108
1.00159
0.999847
0.997704
1.00017
1.00479
1.0049
1.00019
0.997898
0.999733
1.00159
0.996812
0.987425
0.977165
1.00762
1.00798
0.999438
1.00612
1.01055
1.01377
1.01472
1.01415
1.01648
1.01651
1.01933
1.01961
1.02247
1.02396
1.03148
1.03551
1.03964
1.04038
1.04394
1.04361
1.04635
1.04567
1.04746
1.04735
1.04851
1.04867
1.04965
1.04988
1.05083
1.05093
1.05182
1.05182
1.05265
1.05256
1.05342
1.05341
1.05436
1.05427
1.05493
1.05524
1.0559
1.05594
1.05696
1.05706
1.05761
1.05768
1.05835
1.0584
1.05877
1.05858
1.05912
1.05936
1.05973
1.05957
1.05995
1.05992
1.05995
1.05998
1.05996
1.05976
1.05965
1.05947
1.05931
1.05901
1.05886
1.05845
1.05823
1.05782
1.05748
1.05692
1.05644
1.05577
1.05521
1.05453
1.05388
1.05307
1.05229
1.05142
1.05051
1.04953
1.04851
1.04736
1.04602
1.0445
1.04296
1.04122
1.03945
1.03746
1.03543
1.03327
1.03105
1.02862
1.02616
1.02358
1.02097
1.0172
1.01348
1.01133
1.00932
1.00607
1.00271
0.999124
0.995635
0.992022
0.988507
0.98431
0.980629
0.976768
0.973389
0.969583
0.966828
0.963947
0.962038
0.959753
0.959187
0.957926
0.958847
0.959431
0.960209
0.9619
0.963135
0.964432
0.967269
0.968493
0.971094
0.972394
0.974413
0.976583
0.978651
0.981085
0.982545
0.984517
0.985424
0.987175
0.988828
0.990658
0.992074
0.994052
0.995504
0.997175
0.998767
1.00068
1.00242
1.00433
1.00617
1.00836
1.01008
1.01253
1.01458
1.01715
1.01912
1.02158
1.02345
1.02636
1.02831
1.03149
1.0336
1.03726
1.03978
1.04383
1.04606
1.05076
1.05289
1.05832
1.06085
1.06665
1.0695
1.0756
1.07883
1.08377
1.08741
1.09105
1.09185
1.0909
1.08405
1.07694
1.06165
1.04345
1.02056
0.995946
0.974786
0.959791
0.939455
0.919808
0.901131
0.884421
0.871872
0.858972
0.85203
0.841949
0.840765
0.83315
0.831402
0.828567
0.828572
0.826909
0.82682
0.824799
0.826444
0.825445
0.826454
0.825122
0.82555
0.824393
0.824518
0.822827
0.823249
0.822419
0.823433
0.822714
0.823431
0.822527
0.821569
0.820361
0.820567
0.820443
0.820744
0.820788
0.821765
0.821788
0.823518
0.824003
0.825317
0.822854
0.82366
0.821911
0.823098
0.823
0.82506
0.825976
0.828532
0.83013
0.83243
0.834128
0.836132
0.839647
0.843505
0.856284
0.888049
0.919152
0.932049
0.93321
0.928019
0.929196
0.929886
0.931472
0.935537
0.939852
0.949486
0.959559
0.967154
0.97236
0.977067
0.982015
0.986789
0.991409
0.995329
0.998977
1.00195
1.00523
1.00944
1.0136
1.01558
1.01761
1.02123
1.02533
1.02766
1.02913
1.03106
1.03346
1.03562
1.03758
1.03961
1.04166
1.04377
1.04587
1.04797
1.05
1.05189
1.05369
1.05538
1.05701
1.05853
1.05997
1.06139
1.06272
1.06407
1.06533
1.06661
1.06782
1.06904
1.07019
1.07131
1.07243
1.07348
1.07461
1.07555
1.07665
1.07745
1.07845
1.07916
1.08009
1.08076
1.08161
1.08223
1.083
1.08358
1.08422
1.08475
1.08527
1.08578
1.08619
1.08661
1.08699
1.0874
1.08763
1.08804
1.08817
1.08854
1.08868
1.08903
1.08923
1.0895
1.08981
1.09008
1.09043
1.09066
1.09097
1.09144
1.09188
1.09187
1.09359
1.09227
1.09502
1.09276
1.08908
1.08031
1.06458
1.05347
1.04292
1.02845
1.02126
1.017
1.01644
1.01483
1.01535
1.01371
1.01109
1.00626
0.99981
1.00788
1.00808
0.976999
0.987157
0.996536
1.00115
0.999802
0.997602
1.00015
1.0048
1.00496
0.999891
0.997802
0.999823
1.00122
0.996615
0.987835
0.977084
1.00845
1.0078
0.999627
1.0055
1.01041
1.0133
1.01524
1.01396
1.01676
1.01647
1.01929
1.01973
1.02232
1.02312
1.02894
1.03305
1.03797
1.03829
1.04244
1.04161
1.04435
1.04322
1.04528
1.04509
1.04651
1.04649
1.04765
1.04782
1.04876
1.04891
1.04967
1.04982
1.05048
1.05056
1.05122
1.05142
1.05222
1.05218
1.05289
1.05318
1.05388
1.05389
1.05489
1.05492
1.05557
1.0556
1.05617
1.05626
1.05659
1.05647
1.05699
1.0572
1.05755
1.05739
1.05772
1.0577
1.05771
1.05769
1.05766
1.05744
1.05732
1.05709
1.05693
1.05658
1.05638
1.05595
1.05568
1.05522
1.05484
1.05423
1.05369
1.05296
1.05233
1.05158
1.05085
1.04995
1.04908
1.04811
1.0471
1.04601
1.04487
1.04359
1.04214
1.0405
1.03883
1.03697
1.03507
1.03296
1.03082
1.02854
1.02622
1.02372
1.02119
1.01856
1.01591
1.01218
1.00853
1.00638
1.00431
1.00111
0.997856
0.994353
0.990974
0.987474
0.984165
0.980205
0.976931
0.973453
0.970389
0.967243
0.964572
0.962464
0.960426
0.959427
0.958143
0.958173
0.957273
0.959991
0.959036
0.962675
0.962066
0.964998
0.966282
0.96923
0.969973
0.973647
0.973498
0.977776
0.97748
0.981813
0.981305
0.985371
0.984684
0.988175
0.988016
0.991491
0.991241
0.994621
0.994645
0.997948
0.998201
1.00159
1.00205
1.00532
1.00559
1.00906
1.00964
1.01333
1.01392
1.01783
1.01873
1.02275
1.02321
1.02723
1.02783
1.03234
1.03325
1.038
1.0393
1.04435
1.04581
1.05137
1.05331
1.05869
1.06102
1.06634
1.06942
1.07483
1.0785
1.08319
1.0858
1.08969
1.09041
1.08929
1.08375
1.07706
1.06382
1.04778
1.02718
1.00356
0.9835
0.965092
0.945561
0.925964
0.907012
0.890003
0.876381
0.859797
0.854033
0.84376
0.838553
0.833827
0.829448
0.827524
0.826
0.82413
0.825101
0.823588
0.823567
0.82325
0.822677
0.823935
0.822139
0.822637
0.820797
0.820953
0.820042
0.820543
0.821085
0.820009
0.821108
0.819913
0.819802
0.817468
0.818252
0.817722
0.818777
0.818732
0.819764
0.819773
0.821576
0.822089
0.823509
0.821372
0.821385
0.819625
0.820154
0.820145
0.821069
0.821792
0.823391
0.824045
0.825393
0.826648
0.827308
0.830705
0.833183
0.844173
0.874639
0.906185
0.917637
0.918759
0.913752
0.91485
0.915875
0.917138
0.921774
0.925115
0.937713
0.945819
0.953898
0.959359
0.96422
0.969354
0.974364
0.979356
0.983675
0.987761
0.99113
0.994781
0.999261
1.00368
1.00597
1.00831
1.01219
1.01663
1.01936
1.02121
1.02347
1.02614
1.02856
1.03074
1.03297
1.03521
1.0375
1.03977
1.04204
1.04424
1.04631
1.0483
1.05017
1.05197
1.05368
1.05528
1.05686
1.05832
1.0598
1.06119
1.06259
1.06391
1.06524
1.06649
1.06772
1.06894
1.07009
1.07131
1.07235
1.07353
1.07444
1.07551
1.07633
1.07733
1.07809
1.07902
1.07972
1.08057
1.08124
1.08195
1.08256
1.08315
1.08373
1.0842
1.08468
1.08512
1.08556
1.08586
1.08631
1.08649
1.08699
1.08702
1.0876
1.08766
1.08809
1.08831
1.0888
1.08894
1.08951
1.08952
1.09019
1.09034
1.09092
1.09153
1.0919
1.09202
1.09374
1.09258
1.08549
1.07158
1.05767
1.04632
1.03042
1.02172
1.01764
1.01644
1.01493
1.01454
1.01488
1.0112
1.00687
0.99926
1.00809
1.00796
0.976948
0.987242
0.996986
1.00193
0.999789
0.997666
1.0002
1.00474
1.00499
1.00022
0.997947
0.999729
1.00159
0.996899
0.987434
0.977231
1.00745
1.00785
0.999575
1.00593
1.01028
1.0139
1.01466
1.01399
1.01677
1.01625
1.01943
1.01947
1.02242
1.02272
1.02749
1.03037
1.0359
1.03552
1.03975
1.03934
1.042
1.04142
1.04328
1.04317
1.04446
1.04457
1.04563
1.04578
1.04659
1.04674
1.0475
1.04753
1.04829
1.04826
1.04897
1.04915
1.04994
1.04996
1.05065
1.05096
1.05163
1.05171
1.05256
1.05264
1.05329
1.0533
1.05379
1.05383
1.05422
1.05413
1.05463
1.05481
1.05515
1.05498
1.0553
1.05524
1.05523
1.05519
1.05514
1.05491
1.05475
1.05449
1.0543
1.05393
1.0537
1.05323
1.05292
1.05242
1.05199
1.05133
1.05074
1.04996
1.04925
1.04844
1.04762
1.04665
1.04569
1.04462
1.04351
1.04233
1.04109
1.0397
1.03815
1.03641
1.03464
1.03269
1.0307
1.02852
1.02631
1.02398
1.02161
1.01909
1.01657
1.01398
1.01137
1.00776
1.00431
1.00224
1.00019
0.997137
0.994089
0.990852
0.987779
0.984675
0.981672
0.97837
0.975259
0.972291
0.969547
0.966735
0.964251
0.962386
0.960488
0.959749
0.958464
0.958487
0.957642
0.960209
0.959513
0.963089
0.962632
0.965613
0.966477
0.969527
0.970256
0.973594
0.974017
0.97807
0.978147
0.982063
0.981563
0.985277
0.984798
0.9884
0.988628
0.991802
0.991729
0.994877
0.994809
0.998088
0.998394
1.00187
1.00253
1.00582
1.00632
1.00961
1.01001
1.01356
1.01417
1.01789
1.01878
1.02263
1.02358
1.02752
1.02887
1.03259
1.03405
1.03796
1.0398
1.04412
1.04619
1.05073
1.05373
1.05824
1.0616
1.06557
1.06929
1.07397
1.07769
1.08224
1.08515
1.08809
1.08883
1.0877
1.08145
1.07382
1.06157
1.04593
1.02588
1.00518
0.985131
0.967995
0.949864
0.931066
0.912282
0.894465
0.88242
0.86734
0.859958
0.849948
0.84641
0.837945
0.834809
0.832276
0.832083
0.829142
0.829793
0.828117
0.828823
0.827087
0.827557
0.82598
0.826662
0.825515
0.825929
0.823652
0.823976
0.823112
0.823965
0.823247
0.823389
0.823409
0.821629
0.820917
0.820924
0.820265
0.821178
0.82104
0.821731
0.821884
0.822454
0.824462
0.824384
0.823013
0.822804
0.821772
0.821005
0.822084
0.821751
0.82324
0.82334
0.824983
0.82499
0.825983
0.825965
0.827425
0.829237
0.837408
0.865212
0.896845
0.906924
0.907332
0.901885
0.90326
0.903559
0.905636
0.908276
0.91442
0.924411
0.934122
0.941126
0.946774
0.951688
0.956912
0.962034
0.967244
0.971834
0.976269
0.979986
0.983976
0.988663
0.993333
0.995918
0.998518
1.00262
1.00734
1.01042
1.01265
1.01525
1.01822
1.02091
1.02332
1.02577
1.0282
1.03069
1.03313
1.03558
1.03794
1.04018
1.04235
1.04441
1.04639
1.04827
1.05004
1.05178
1.05339
1.05501
1.05652
1.05805
1.05949
1.06094
1.0623
1.06364
1.06496
1.06622
1.06753
1.06868
1.06994
1.07095
1.0721
1.07302
1.07409
1.07495
1.07595
1.07675
1.07766
1.07842
1.07921
1.07991
1.08056
1.08122
1.08175
1.08232
1.08279
1.08331
1.08366
1.08417
1.08443
1.08489
1.08509
1.08556
1.08574
1.0862
1.0865
1.08698
1.0873
1.08772
1.08809
1.08847
1.08878
1.08932
1.08985
1.09041
1.09046
1.09199
1.09305
1.08827
1.07866
1.06236
1.05028
1.03304
1.02265
1.01737
1.01671
1.01488
1.01541
1.01373
1.01106
1.00619
0.99976
1.00794
1.00844
0.976983
0.987213
0.996511
1.00111
0.999788
0.997549
1.00021
1.00483
1.00501
0.999919
0.997822
0.99982
1.00106
0.996631
0.987677
0.977158
1.00808
1.00776
0.999525
1.00519
1.0101
1.01337
1.01534
1.01359
1.01691
1.01641
1.01952
1.01961
1.02224
1.02232
1.02589
1.02786
1.03397
1.03366
1.03776
1.03722
1.03959
1.03888
1.04068
1.04064
1.04214
1.04213
1.04334
1.04333
1.04418
1.04431
1.04499
1.0451
1.04578
1.04587
1.04645
1.04675
1.04744
1.04745
1.04828
1.04852
1.04923
1.04931
1.05006
1.05009
1.05082
1.05085
1.0512
1.05122
1.05167
1.05161
1.05207
1.05223
1.05255
1.05236
1.0527
1.05258
1.05259
1.05249
1.05243
1.05218
1.05202
1.05173
1.05152
1.05109
1.05085
1.05036
1.05
1.04946
1.04898
1.04828
1.04764
1.0468
1.04604
1.04515
1.04427
1.04322
1.04218
1.04104
1.03985
1.03858
1.03726
1.03579
1.03417
1.03238
1.03054
1.02855
1.02652
1.02431
1.02209
1.01976
1.01742
1.01497
1.01255
1.01006
1.00757
1.00425
1.00108
0.999238
0.997343
0.994906
0.992069
0.989142
0.986361
0.983562
0.980815
0.977712
0.974876
0.972102
0.969524
0.966604
0.964282
0.962272
0.960521
0.959454
0.958383
0.958458
0.957964
0.959989
0.959368
0.962547
0.962595
0.965311
0.966931
0.969491
0.970231
0.973432
0.97367
0.977728
0.978171
0.982196
0.981696
0.985394
0.984743
0.988008
0.988422
0.99169
0.991841
0.995101
0.995176
0.998067
0.998477
1.00151
1.00254
1.00545
1.00643
1.00969
1.01062
1.01366
1.01468
1.01784
1.01912
1.02234
1.0239
1.02709
1.0289
1.03268
1.03458
1.03845
1.04045
1.0444
1.04661
1.05075
1.05358
1.05803
1.06155
1.06617
1.06891
1.0738
1.07689
1.08095
1.08375
1.08659
1.08723
1.08598
1.0803
1.07456
1.06286
1.04861
1.03048
1.01095
0.991454
0.973974
0.954997
0.936526
0.918144
0.901903
0.887478
0.870581
0.862768
0.851017
0.84623
0.83784
0.83501
0.830529
0.82984
0.827837
0.825386
0.825753
0.824241
0.825325
0.824496
0.823952
0.823927
0.822303
0.82307
0.822235
0.821373
0.821725
0.820609
0.821436
0.820421
0.820986
0.819413
0.818526
0.818647
0.818072
0.819138
0.819006
0.819368
0.820375
0.820577
0.822471
0.822259