/*--------------------------------*- C++ -*----------------------------------*\
| =========                 |                                                 |
| \\      /  F ield         | OpenFOAM: The Open Source CFD Toolbox           |
|  \\    /   O peration     | Version:  v2006                                 |
|   \\  /    A nd           | Website:  www.openfoam.com                      |
|    \\/     M anipulation  |                                                 |
\*---------------------------------------------------------------------------*/
FoamFile
{
    version     2.0;
    format      ascii;
    class       volVectorField;
    location    "150";
    object      U;
}
// * * * * * * * * * * * * * * * * * * * * * * * * * * * * * * * * * * * * * //

dimensions      [0 1 -1 0 0 0 0];


internalField   nonuniform List<vector> 
93840
(
(0.824684 0.0586988 7.95814e-17)
(0.83738 0.0683422 2.65385e-16)
(0.853873 0.0529672 9.30163e-17)
(0.850608 0.0582377 -6.03697e-17)
(0.852256 0.058338 4.40294e-16)
(0.85294 0.0609999 -2.44132e-16)
(0.882235 0.0467274 -3.36037e-16)
(0.883425 0.0477376 5.87306e-17)
(0.847653 0.0230712 -3.16027e-16)
(0.827858 0.0199093 -1.72102e-16)
(0.872988 0.0349831 7.43097e-18)
(0.846955 0.0205794 1.27719e-16)
(0.867138 0.0258176 -1.53958e-16)
(0.848362 0.0159811 1.79125e-16)
(0.85459 0.0125538 6.01674e-17)
(0.844442 0.010852 9.27566e-17)
(0.843313 0.00401212 3.04959e-17)
(0.832821 0.00510867 3.91204e-17)
(0.829656 -0.00334472 6.51997e-17)
(0.816642 0.000716679 -1.34872e-17)
(0.79381 -0.00674068 7.46851e-17)
(0.739068 -0.002631 -2.78971e-17)
(0.681692 -0.00694358 6.23908e-17)
(0.652047 -0.00244171 -2.76431e-17)
(0.614934 -0.00802933 4.94003e-17)
(0.597649 -0.00665391 -2.35591e-17)
(0.598979 -0.0172125 3.92404e-17)
(0.581537 -0.00891969 -1.74076e-17)
(0.583208 0.00306229 2.56672e-17)
(0.555344 -0.00973861 -1.11538e-17)
(0.501623 -0.0280057 2.16392e-17)
(0.455993 -0.00199841 -7.05142e-18)
(0.463738 -0.0332453 1.43747e-17)
(0.500166 -0.0303077 -6.20029e-19)
(0.452729 -0.0241104 8.91301e-18)
(0.481575 -0.0303011 3.25759e-18)
(0.448515 -0.0211788 6.53132e-18)
(0.465723 -0.0280675 4.40211e-18)
(0.444777 -0.0205902 6.36926e-18)
(0.452862 -0.0233736 5.21228e-18)
(0.437625 -0.0194415 6.39195e-18)
(0.446045 -0.0198024 5.31778e-18)
(0.431759 -0.0172353 6.22309e-18)
(0.439584 -0.0170295 6.00623e-18)
(0.425471 -0.0157857 6.04729e-18)
(0.433738 -0.0151542 6.88751e-18)
(0.417885 -0.013034 5.96729e-18)
(0.425765 -0.0126333 7.14728e-18)
(0.4136 -0.0105716 6.1746e-18)
(0.417584 -0.0101821 8.10921e-18)
(0.406831 -0.00810276 5.82025e-18)
(0.410547 -0.00716642 8.39505e-18)
(0.401409 -0.00661137 7.05462e-18)
(0.402192 -0.00447327 7.63879e-18)
(0.393232 -0.00142192 8.32308e-18)
(0.399138 -0.000310289 7.67582e-18)
(0.392918 0.000140129 9.02586e-18)
(0.395274 0.000435357 7.69175e-18)
(0.386642 0.00137112 1.00471e-17)
(0.386628 0.00383177 7.73229e-18)
(0.381796 0.0055385 1.0998e-17)
(0.382792 0.00630131 7.72116e-18)
(0.376348 0.00858627 1.1998e-17)
(0.378542 0.0107177 8.19762e-18)
(0.374736 0.0119558 1.27161e-17)
(0.375675 0.0136132 8.96782e-18)
(0.372283 0.0155307 1.29945e-17)
(0.374977 0.0169967 1.01249e-17)
(0.37208 0.0181917 1.33748e-17)
(0.373501 0.0200144 1.15562e-17)
(0.371805 0.0213758 1.38001e-17)
(0.373113 0.0229485 1.28937e-17)
(0.371974 0.0246232 1.4647e-17)
(0.374122 0.026159 1.40497e-17)
(0.373019 0.0274533 1.44153e-17)
(0.374989 0.0291614 1.38189e-17)
(0.374796 0.030491 1.52458e-17)
(0.376829 0.0322303 1.52236e-17)
(0.377885 0.0337671 1.53145e-17)
(0.380453 0.0351022 1.55607e-17)
(0.381055 0.0364432 1.47742e-17)
(0.383342 0.0380381 1.58895e-17)
(0.384408 0.0396923 1.53305e-17)
(0.387536 0.0415396 1.61909e-17)
(0.389736 0.0428809 1.50613e-17)
(0.392492 0.0444193 1.61907e-17)
(0.395047 0.0458545 1.57794e-17)
(0.397934 0.0472213 1.53435e-17)
(0.400192 0.0487102 1.56279e-17)
(0.403255 0.0505485 1.53183e-17)
(0.407233 0.0525839 1.75014e-17)
(0.41229 0.0542453 1.63454e-17)
(0.416783 0.0558316 1.64743e-17)
(0.42208 0.0574933 1.62753e-17)
(0.427236 0.0591094 1.85796e-17)
(0.433529 0.0607797 1.8789e-17)
(0.43958 0.0621435 2.14885e-17)
(0.446048 0.0636734 1.90351e-17)
(0.452654 0.0651361 2.13752e-17)
(0.460278 0.0667796 2.41038e-17)
(0.468148 0.0680085 2.17129e-17)
(0.47601 0.069261 2.41343e-17)
(0.483624 0.0713424 2.71373e-17)
(0.499693 0.0751618 2.26496e-17)
(0.51822 0.0747665 2.46175e-17)
(0.523958 0.0714052 1.81733e-17)
(0.526411 0.0719948 2.4922e-17)
(0.538259 0.0751009 1.88948e-17)
(0.552131 0.0757193 2.89587e-17)
(0.566069 0.0759591 2.28697e-17)
(0.57987 0.0754687 3.01778e-17)
(0.59393 0.0748282 2.36553e-17)
(0.607613 0.0738519 3.132e-17)
(0.624918 0.073414 2.70393e-17)
(0.641283 0.0710347 3.55449e-17)
(0.657722 0.0684622 3.38643e-17)
(0.673091 0.0650621 3.6374e-17)
(0.691277 0.0623721 3.62559e-17)
(0.70676 0.0569126 3.84052e-17)
(0.721893 0.0522548 3.7862e-17)
(0.733848 0.0454167 3.93425e-17)
(0.747666 0.0404103 4.04268e-17)
(0.755186 0.030748 4.11067e-17)
(0.76569 0.024442 4.12599e-17)
(0.766832 0.0138988 4.25998e-17)
(0.766668 0.00771454 4.22447e-17)
(0.77062 -0.000413267 4.42469e-17)
(0.763716 -0.0081823 4.42205e-17)
(0.765155 -0.0118856 4.62528e-17)
(0.763982 -0.0212279 4.64279e-17)
(0.756153 -0.0246761 4.83497e-17)
(0.755102 -0.03204 4.85391e-17)
(0.748667 -0.0348098 5.02808e-17)
(0.747033 -0.0399081 4.97669e-17)
(0.744543 -0.0443953 5.16652e-17)
(0.739352 -0.0485312 5.01046e-17)
(0.735247 -0.0528907 5.20567e-17)
(0.730623 -0.0550003 5.11826e-17)
(0.728343 -0.0592128 5.20108e-17)
(0.725289 -0.0610867 5.07501e-17)
(0.725112 -0.0659054 5.10861e-17)
(0.72267 -0.0691779 4.87776e-17)
(0.718788 -0.0732114 4.88059e-17)
(0.716188 -0.0752208 4.87613e-17)
(0.713814 -0.0795867 4.75827e-17)
(0.711377 -0.0820398 4.66988e-17)
(0.709641 -0.0865175 4.66556e-17)
(0.707905 -0.0897368 4.56454e-17)
(0.705001 -0.0948009 4.57802e-17)
(0.700792 -0.0979134 4.62176e-17)
(0.696707 -0.102047 4.52674e-17)
(0.693584 -0.105549 4.64621e-17)
(0.689468 -0.110366 4.58543e-17)
(0.685078 -0.113779 4.72635e-17)
(0.679773 -0.118681 4.72179e-17)
(0.675079 -0.122431 4.79687e-17)
(0.668608 -0.127109 4.82608e-17)
(0.662409 -0.13129 4.96433e-17)
(0.65499 -0.135852 4.96555e-17)
(0.647525 -0.139266 5.23381e-17)
(0.640387 -0.143251 5.30541e-17)
(0.634258 -0.148328 5.56841e-17)
(0.62621 -0.153876 5.63143e-17)
(0.616468 -0.158766 5.88287e-17)
(0.605978 -0.1645 5.94571e-17)
(0.59349 -0.169875 6.17678e-17)
(0.579637 -0.175231 6.24059e-17)
(0.565754 -0.179536 6.51235e-17)
(0.551938 -0.184695 6.49341e-17)
(0.535083 -0.190906 6.79016e-17)
(0.513834 -0.196523 6.7723e-17)
(0.489579 -0.19981 7.02956e-17)
(0.463785 -0.20152 7.0678e-17)
(0.437992 -0.202174 7.2532e-17)
(0.404729 -0.206149 7.44868e-17)
(0.367717 -0.202585 7.54586e-17)
(0.322411 -0.198543 7.75923e-17)
(0.26701 -0.181864 7.76187e-17)
(0.20739 -0.159247 7.87585e-17)
(0.142014 -0.11621 7.73803e-17)
(0.0912407 -0.0561471 8.02088e-17)
(-0.00644158 0.0881178 5.02844e-17)
(-0.0195018 0.1951 6.25283e-17)
(-0.0167268 0.453104 7.7379e-17)
(0.106458 0.594432 8.21726e-17)
(0.232555 0.782804 8.35975e-17)
(0.471909 0.83416 8.46443e-17)
(0.650811 0.844511 8.49979e-17)
(0.779181 0.7627 8.33232e-17)
(0.8084 0.708454 8.30788e-17)
(0.920599 0.699405 8.33408e-17)
(1.0137 0.668616 8.3416e-17)
(1.08841 0.628012 8.10476e-17)
(1.13299 0.584218 8.08652e-17)
(1.17103 0.540005 8.24616e-17)
(1.1914 0.507035 8.2513e-17)
(1.20506 0.473916 8.16957e-17)
(1.22297 0.446506 8.2801e-17)
(1.2245 0.417902 8.3271e-17)
(1.22909 0.395298 8.33107e-17)
(1.22673 0.373267 8.39912e-17)
(1.22085 0.355107 8.44899e-17)
(1.21819 0.335263 8.473e-17)
(1.21441 0.321184 8.48691e-17)
(1.21146 0.306894 8.57726e-17)
(1.20463 0.293275 8.47495e-17)
(1.19946 0.279591 8.47803e-17)
(1.1933 0.267955 8.39826e-17)
(1.18816 0.257142 8.41056e-17)
(1.18304 0.24583 8.31455e-17)
(1.17958 0.23542 8.28105e-17)
(1.17348 0.22467 8.13625e-17)
(1.16829 0.215437 8.09383e-17)
(1.1649 0.206776 7.94115e-17)
(1.15838 0.197003 7.82985e-17)
(1.15293 0.188261 7.66815e-17)
(1.14437 0.180047 7.55591e-17)
(1.14057 0.172188 7.33663e-17)
(1.13168 0.164504 7.19737e-17)
(1.13027 0.155543 6.96489e-17)
(1.12567 0.147377 6.81631e-17)
(1.12353 0.138841 6.54492e-17)
(1.11271 0.131358 6.40779e-17)
(1.10733 0.125739 6.15772e-17)
(1.09528 0.119518 6.04145e-17)
(1.08943 0.115086 5.8962e-17)
(1.07949 0.109276 5.85737e-17)
(1.07359 0.104485 5.71039e-17)
(1.06218 0.0994268 5.73371e-17)
(1.05334 0.0945287 5.58276e-17)
(1.0483 0.0903726 5.58751e-17)
(1.04869 0.0821262 5.4192e-17)
(1.04539 0.0762317 5.57521e-17)
(1.04249 0.0694953 5.47324e-17)
(1.03782 0.0635361 5.58382e-17)
(1.02799 0.0585632 5.33966e-17)
(1.02185 0.0543181 5.40867e-17)
(1.01132 0.0495375 5.25554e-17)
(1.00699 0.0455858 5.35925e-17)
(0.996225 0.0406629 5.31452e-17)
(0.992426 0.0364659 5.4395e-17)
(0.986236 0.0315916 5.40474e-17)
(0.979155 0.0272562 5.52292e-17)
(0.976736 0.0220825 5.67594e-17)
(0.947259 0.0177521 5.79338e-17)
(0.929718 0.0136427 5.94285e-17)
(0.809461 0.010601 6.03217e-17)
(0.64536 0.00227144 6.08869e-17)
(0.582369 -0.000396394 6.22467e-17)
(0.610995 -0.00313574 6.32635e-17)
(0.66299 -0.00902237 6.42409e-17)
(0.676415 -0.010947 6.45325e-17)
(0.695601 -0.0151846 6.47632e-17)
(0.698439 -0.0189129 6.5061e-17)
(0.69816 -0.0233465 6.53056e-17)
(0.684468 -0.0258667 6.5623e-17)
(0.655523 -0.028904 6.58326e-17)
(0.619454 -0.0310501 6.55818e-17)
(0.594437 -0.0342471 6.57744e-17)
(0.581847 -0.0366856 6.39405e-17)
(0.571101 -0.0393866 6.36125e-17)
(0.560997 -0.041502 6.2029e-17)
(0.551652 -0.0437846 6.18941e-17)
(0.542485 -0.0457084 6.00938e-17)
(0.533845 -0.0477204 5.97921e-17)
(0.52551 -0.0491004 5.66281e-17)
(0.519091 -0.0510528 5.62401e-17)
(0.510073 -0.0541852 5.27742e-17)
(0.492549 -0.0556087 5.2352e-17)
(0.478018 -0.0525456 4.93413e-17)
(0.479478 -0.0517231 4.79815e-17)
(0.479426 -0.0554966 4.55537e-17)
(0.466111 -0.0585584 4.50831e-17)
(0.44956 -0.0563684 4.22677e-17)
(0.44558 -0.0542896 4.10369e-17)
(0.445741 -0.0556567 3.92692e-17)
(0.439618 -0.0581323 3.90528e-17)
(0.428819 -0.0585527 3.64751e-17)
(0.420189 -0.0578824 3.57625e-17)
(0.413211 -0.0577604 3.50487e-17)
(0.405633 -0.0577407 3.48897e-17)
(0.397917 -0.0577168 3.52464e-17)
(0.389623 -0.0574766 3.4557e-17)
(0.381455 -0.0572485 3.33679e-17)
(0.37262 -0.056801 3.33686e-17)
(0.364328 -0.0560663 3.14385e-17)
(0.356629 -0.0554049 3.08816e-17)
(0.349132 -0.0548519 2.97904e-17)
(0.341667 -0.0543147 3.09918e-17)
(0.334195 -0.0537283 2.97371e-17)
(0.32685 -0.0530946 3.07599e-17)
(0.319417 -0.0524228 2.98461e-17)
(0.312288 -0.0517524 2.8383e-17)
(0.304733 -0.050959 2.97553e-17)
(0.297932 -0.0502497 2.89902e-17)
(0.290359 -0.0494028 2.899e-17)
(0.283825 -0.0486985 2.80058e-17)
(0.276087 -0.0477983 2.81386e-17)
(0.269813 -0.0470486 2.65749e-17)
(0.261917 -0.0459541 2.73608e-17)
(0.256351 -0.0451923 2.57929e-17)
(0.248554 -0.044166 2.55867e-17)
(0.24334 -0.0436808 2.44905e-17)
(0.234763 -0.0426873 2.35092e-17)
(0.229273 -0.0420102 2.355e-17)
(0.22058 -0.0405561 2.19603e-17)
(0.216355 -0.0398288 2.18564e-17)
(0.207881 -0.0383987 2.15633e-17)
(0.204687 -0.0379588 2.16768e-17)
(0.19581 -0.0365594 1.92927e-17)
(0.193205 -0.0362456 2.08347e-17)
(0.183636 -0.0346164 1.78321e-17)
(0.181921 -0.0342864 1.96845e-17)
(0.17231 -0.0324756 1.64406e-17)
(0.171956 -0.0324243 1.85112e-17)
(0.161817 -0.030638 1.56681e-17)
(0.162311 -0.0309415 1.71212e-17)
(0.15128 -0.0289918 1.68876e-17)
(0.152342 -0.029437 1.18984e-17)
(0.140422 -0.0268649 2.0715e-17)
(0.142002 -0.0274433 4.33438e-18)
(0.130088 -0.0242776 2.67044e-17)
(0.131586 -0.0254117 -5.46922e-18)
(0.118927 -0.0213743 3.44443e-17)
(0.119056 -0.0231954 -1.59572e-17)
(0.106541 -0.0186107 4.35164e-17)
(0.105394 -0.0210906 -2.95051e-17)
(0.0939144 -0.0154136 5.33877e-17)
(0.0913308 -0.0192138 -3.69031e-17)
(0.0822222 -0.012229 4.29876e-17)
(0.0780915 -0.0179431 -1.49461e-17)
(0.0728813 -0.0108346 7.11356e-18)
(0.0688176 -0.0191887 8.94017e-18)
(0.0729976 -0.0230603 -8.16166e-18)
(0.0780395 -0.0155918 1.57047e-17)
(0.054282 -0.090198 -6.01864e-18)
(0.154364 0.00563838 -9.06947e-18)
(0.170556 -0.0227876 1.21021e-17)
(0.291839 -0.0125979 -1.7806e-17)
(0.408555 0.0219963 2.29946e-17)
(0.47168 0.00994856 -1.54163e-17)
(0.553992 -0.00470279 2.92765e-17)
(0.59901 -0.00168785 -2.0033e-17)
(0.610035 -0.00592426 4.101e-17)
(0.642551 -0.00112551 -2.43581e-17)
(0.66957 -0.00546132 5.59045e-17)
(0.727551 -0.00197832 -2.73582e-17)
(0.790745 -0.0065291 6.49089e-17)
(0.816694 0.000198378 -1.43467e-17)
(0.829442 -0.00282259 7.94369e-17)
(0.832799 0.00558111 -1.45122e-17)
(0.843866 0.00414993 1.03809e-16)
(0.843986 0.0107016 2.33632e-17)
(0.854684 0.0125947 5.04928e-17)
(0.848311 0.0159674 6.28237e-17)
(0.867951 0.0259028 2.77876e-16)
(0.846569 0.020857 2.79147e-17)
(0.871746 0.0353882 9.16925e-17)
(0.827168 0.0201339 -4.50518e-17)
(0.84823 0.0227293 5.09364e-16)
(0.88347 0.0480075 9.20575e-17)
(0.882387 0.0471491 -4.001e-16)
(0.852492 0.0609681 2.09211e-16)
(0.852666 0.0583055 -9.68592e-17)
(0.850652 0.0584309 1.66584e-16)
(0.853966 0.0529752 4.18396e-17)
(0.837405 0.0687739 1.31696e-16)
(0.824589 0.0587339 6.78583e-17)
(0.824548 0.0587774 6.65433e-17)
(0.837321 0.0686975 1.30837e-16)
(0.853954 0.0529648 2.26938e-17)
(0.850673 0.0584162 7.93811e-17)
(0.852766 0.0583599 -2.30369e-16)
(0.852595 0.060977 3.60564e-16)
(0.882424 0.0470839 -4.74328e-16)
(0.883531 0.0479887 2.31506e-16)
(0.848527 0.0227522 4.66657e-16)
(0.827431 0.0201145 -2.73582e-17)
(0.871677 0.0354103 8.89989e-17)
(0.847099 0.0207361 5.85332e-17)
(0.867867 0.025893 3.50166e-16)
(0.848283 0.016131 1.26717e-16)
(0.854921 0.0125322 1.28172e-16)
(0.84375 0.0105805 1.10639e-17)
(0.843483 0.00421819 4.18483e-17)
(0.832759 0.00577266 4.84037e-17)
(0.828918 -0.00256306 7.50537e-17)
(0.820001 0.000551822 -3.32592e-18)
(0.803941 -0.0060626 6.96901e-17)
(0.755686 -0.00149686 -2.0611e-17)
(0.699818 -0.00517579 6.36087e-17)
(0.670905 -2.69582e-05 -2.59486e-17)
(0.637361 -0.00413735 5.42061e-17)
(0.607639 -0.000654168 -2.54089e-17)
(0.586726 -0.00824458 4.59937e-17)
(0.572643 -0.00391841 -1.72078e-17)
(0.567288 0.000361591 2.02537e-17)
(0.569063 -0.0259646 -4.85179e-18)
(0.552256 -0.0316938 2.24191e-17)
(0.545332 -0.0310987 -3.04989e-18)
(0.543106 -0.00999461 1.57234e-17)
(0.526625 -0.0283633 1.67832e-18)
(0.529559 -0.0187483 1.12765e-17)
(0.516805 -0.0253513 5.58684e-18)
(0.516475 -0.0206082 9.09609e-18)
(0.50928 -0.023271 6.70809e-18)
(0.505238 -0.0208381 9.27583e-18)
(0.502135 -0.0203868 6.70339e-18)
(0.495953 -0.0193975 9.2915e-18)
(0.495634 -0.0176676 7.26065e-18)
(0.488997 -0.0171004 9.01968e-18)
(0.489288 -0.0154782 8.14497e-18)
(0.482614 -0.0151996 8.66597e-18)
(0.48262 -0.0139341 8.87609e-18)
(0.475463 -0.0123349 8.60334e-18)
(0.475695 -0.0116371 9.27484e-18)
(0.469071 -0.00975247 9.02354e-18)
(0.46925 -0.0093718 9.63596e-18)
(0.461097 -0.00702787 9.0499e-18)
(0.462418 -0.00645445 1.03024e-17)
(0.455505 -0.00529086 9.48966e-18)
(0.454997 -0.00374521 1.03409e-17)
(0.448578 -0.000633825 1.0347e-17)
(0.450809 0.000488059 1.04992e-17)
(0.446037 0.00151409 1.09692e-17)
(0.447135 0.00195024 1.07683e-17)
(0.440504 0.00320122 1.18423e-17)
(0.439576 0.0052614 1.08488e-17)
(0.435384 0.00730504 1.27565e-17)
(0.435675 0.00816203 1.10417e-17)
(0.430565 0.0105326 1.36997e-17)
(0.431852 0.0125924 1.13118e-17)
(0.428595 0.0141529 1.44588e-17)
(0.429334 0.015857 1.19358e-17)
(0.42649 0.0179545 1.50104e-17)
(0.42868 0.019575 1.26546e-17)
(0.426379 0.0210699 1.54158e-17)
(0.427677 0.0229521 1.36595e-17)
(0.426365 0.0245143 1.55321e-17)
(0.427692 0.0263125 1.41978e-17)
(0.426981 0.0281703 1.59802e-17)
(0.429052 0.0298609 1.48107e-17)
(0.428402 0.0313964 1.64238e-17)
(0.430473 0.0332828 1.59281e-17)
(0.430684 0.0348595 1.63915e-17)
(0.432914 0.0367192 1.63321e-17)
(0.434288 0.0385075 1.70774e-17)
(0.437029 0.0400283 1.7094e-17)
(0.438069 0.0416465 1.7247e-17)
(0.440717 0.0434134 1.77772e-17)
(0.44226 0.0452833 1.76432e-17)
(0.445719 0.0473038 1.75035e-17)
(0.448331 0.0488992 1.7678e-17)
(0.451551 0.0506646 1.79215e-17)
(0.454563 0.0523457 1.79012e-17)
(0.457982 0.0539661 1.84618e-17)
(0.460901 0.0557092 1.84136e-17)
(0.464674 0.0577382 1.87947e-17)
(0.46934 0.0599646 1.9099e-17)
(0.47503 0.0618461 1.76079e-17)
(0.48028 0.0636698 2.01682e-17)
(0.486377 0.0655354 1.99269e-17)
(0.492367 0.0673782 2.21025e-17)
(0.499518 0.0692933 2.17753e-17)
(0.50643 0.0708748 2.28497e-17)
(0.513911 0.072612 2.39955e-17)
(0.521545 0.0742449 2.45924e-17)
(0.530248 0.0760394 2.34996e-17)
(0.539228 0.0774455 2.65698e-17)
(0.548451 0.078882 2.67467e-17)
(0.557705 0.0809511 2.35606e-17)
(0.574791 0.0847899 2.48614e-17)
(0.593355 0.0846057 2.49144e-17)
(0.600179 0.0814152 2.51313e-17)
(0.604783 0.0820163 2.77828e-17)
(0.618127 0.0849591 2.59022e-17)
(0.633046 0.0855185 2.91862e-17)
(0.648229 0.0856982 2.69149e-17)
(0.663263 0.0850607 3.2839e-17)
(0.678632 0.084229 2.97739e-17)
(0.69372 0.0829 3.60815e-17)
(0.712178 0.0822939 3.407e-17)
(0.729417 0.0793987 3.9959e-17)
(0.746818 0.0764323 3.84397e-17)
(0.763083 0.0724059 4.25643e-17)
(0.781838 0.0690536 4.20361e-17)
(0.797467 0.0630575 4.43737e-17)
(0.812803 0.0575516 4.39793e-17)
(0.824662 0.0502098 4.64346e-17)
(0.838219 0.0441448 4.46677e-17)
(0.845002 0.0345989 4.71471e-17)
(0.854915 0.0279879 4.63417e-17)
(0.855176 0.0156699 4.84292e-17)
(0.854968 0.0104148 4.83971e-17)
(0.857743 -0.000197386 5.05479e-17)
(0.850717 -0.00698947 5.06609e-17)
(0.851569 -0.0130646 5.28457e-17)
(0.849225 -0.0218938 5.30653e-17)
(0.841202 -0.0275079 5.50081e-17)
(0.839568 -0.0337276 5.50068e-17)
(0.832589 -0.0384918 5.66536e-17)
(0.830444 -0.0435136 5.63536e-17)
(0.827008 -0.0478852 5.77865e-17)
(0.821283 -0.0539013 5.75146e-17)
(0.816829 -0.0565352 5.84948e-17)
(0.811553 -0.0616434 5.75194e-17)
(0.808958 -0.0641906 5.84193e-17)
(0.805069 -0.0688614 5.68425e-17)
(0.804244 -0.0718158 5.70059e-17)
(0.800842 -0.0770537 5.54408e-17)
(0.796645 -0.08 5.50929e-17)
(0.793177 -0.0841322 5.3198e-17)
(0.790275 -0.0866985 5.2848e-17)
(0.786878 -0.091218 5.10948e-17)
(0.784427 -0.094326 5.12469e-17)
(0.781453 -0.0994807 4.99641e-17)
(0.777666 -0.103221 5.12984e-17)
(0.772421 -0.107676 5.02599e-17)
(0.767463 -0.11107 5.19477e-17)
(0.763006 -0.115867 5.13004e-17)
(0.757841 -0.119514 5.30643e-17)
(0.751943 -0.124775 5.29324e-17)
(0.745669 -0.128208 5.42284e-17)
(0.739382 -0.133254 5.52677e-17)
(0.731431 -0.137013 5.66379e-17)
(0.723653 -0.141907 5.78498e-17)
(0.714752 -0.146039 6.0057e-17)
(0.705514 -0.149551 6.14282e-17)
(0.696333 -0.15263 6.36919e-17)
(0.687541 -0.157487 6.58255e-17)
(0.676302 -0.162441 6.84896e-17)
(0.663103 -0.166986 7.02809e-17)
(0.649184 -0.171538 7.26387e-17)
(0.633174 -0.175758 7.44099e-17)
(0.616085 -0.17895 7.65237e-17)
(0.598168 -0.181859 7.71907e-17)
(0.578916 -0.184661 8.083e-17)
(0.556745 -0.18836 7.93961e-17)
(0.531127 -0.190328 8.31133e-17)
(0.501786 -0.190341 8.25212e-17)
(0.470202 -0.187285 8.56901e-17)
(0.436845 -0.186453 8.44735e-17)
(0.400465 -0.18297 8.58448e-17)
(0.356134 -0.176533 8.59582e-17)
(0.312165 -0.165487 8.6046e-17)
(0.262737 -0.150171 8.54448e-17)
(0.208976 -0.115004 8.55894e-17)
(0.149525 -0.0654958 8.3329e-17)
(0.100426 -0.0057283 8.31852e-17)
(0.0505492 0.0904533 6.24603e-17)
(0.0536523 0.230276 9.35408e-17)
(0.050164 0.378988 1.03994e-16)
(0.150951 0.485424 1.11713e-16)
(0.28423 0.644525 1.13799e-16)
(0.479821 0.712497 1.17249e-16)
(0.644045 0.747245 1.17027e-16)
(0.781448 0.710874 1.18038e-16)
(0.839794 0.690784 1.16645e-16)
(0.943961 0.69459 1.17231e-16)
(1.03225 0.663571 1.17587e-16)
(1.11454 0.633612 1.15737e-16)
(1.17432 0.600208 1.13731e-16)
(1.2241 0.565056 1.15315e-16)
(1.25758 0.532958 1.13971e-16)
(1.27962 0.503283 1.12124e-16)
(1.30533 0.47954 1.1118e-16)
(1.31487 0.451053 1.11755e-16)
(1.32599 0.427207 1.10171e-16)
(1.32898 0.408312 1.09435e-16)
(1.32778 0.388543 1.08338e-16)
(1.32687 0.372095 1.07681e-16)
(1.32646 0.354462 1.06112e-16)
(1.32557 0.338518 1.05508e-16)
(1.32071 0.323573 1.0384e-16)
(1.31602 0.312015 1.02564e-16)
(1.31152 0.298682 1.00974e-16)
(1.30685 0.286079 9.96716e-17)
(1.30177 0.274752 9.83926e-17)
(1.29804 0.26291 9.7538e-17)
(1.29263 0.251876 9.61847e-17)
(1.28768 0.239946 9.48e-17)
(1.28504 0.229765 9.30239e-17)
(1.27833 0.21972 9.11198e-17)
(1.27416 0.211221 8.92801e-17)
(1.26546 0.201897 8.71344e-17)
(1.2626 0.193263 8.48011e-17)
(1.25354 0.183648 8.28352e-17)
(1.25233 0.176806 8.02533e-17)
(1.24754 0.165361 7.81842e-17)
(1.2466 0.15643 7.54622e-17)
(1.2362 0.149028 7.37723e-17)
(1.23196 0.142309 7.12469e-17)
(1.22009 0.13551 6.97118e-17)
(1.21496 0.129733 6.64872e-17)
(1.20464 0.12391 6.66414e-17)
(1.19943 0.11824 6.41725e-17)
(1.18805 0.112606 6.42017e-17)
(1.1796 0.107536 6.20059e-17)
(1.17333 0.101384 6.29946e-17)
(1.17307 0.0943279 6.10236e-17)
(1.1697 0.0868538 6.2408e-17)
(1.16668 0.0792603 6.11384e-17)
(1.16279 0.0728032 6.1844e-17)
(1.15286 0.067044 6.05176e-17)
(1.14784 0.06227 6.08524e-17)
(1.1359 0.0566664 5.92265e-17)
(1.13307 0.0523632 6.0101e-17)
(1.12022 0.046603 5.91684e-17)
(1.11875 0.0421043 5.9958e-17)
(1.10953 0.0363672 6.02543e-17)
(1.10572 0.0314294 6.13111e-17)
(1.09973 0.0261547 6.27402e-17)
(1.07563 0.0208747 6.37013e-17)
(1.05845 0.0177498 6.58116e-17)
(0.945898 0.0214278 6.67005e-17)
(0.787521 0.012834 6.73235e-17)
(0.714226 0.00146066 6.86002e-17)
(0.72801 -0.00718781 6.98086e-17)
(0.771751 -0.0136239 7.0887e-17)
(0.781445 -0.014289 7.13607e-17)
(0.798066 -0.0186577 7.18318e-17)
(0.799627 -0.0219853 7.20913e-17)
(0.798568 -0.026688 7.23123e-17)
(0.784873 -0.0287201 7.27754e-17)
(0.756223 -0.0308769 7.26259e-17)
(0.71951 -0.0342845 7.30222e-17)
(0.692494 -0.0385417 7.21227e-17)
(0.677308 -0.0420482 7.2415e-17)
(0.664225 -0.04522 7.13574e-17)
(0.651899 -0.0476292 7.04876e-17)
(0.640482 -0.0502779 6.8499e-17)
(0.629387 -0.052515 6.66655e-17)
(0.619187 -0.0548562 6.50015e-17)
(0.609421 -0.0564782 6.38808e-17)
(0.601587 -0.0586668 6.11842e-17)
(0.591506 -0.0617394 5.96925e-17)
(0.573653 -0.0632597 5.74354e-17)
(0.557795 -0.0605721 5.47076e-17)
(0.556657 -0.0603199 5.34322e-17)
(0.555004 -0.0638529 5.16081e-17)
(0.541578 -0.0665173 5.0402e-17)
(0.524562 -0.064697 4.85689e-17)
(0.518715 -0.0630539 4.83464e-17)
(0.517201 -0.0644178 4.50625e-17)
(0.510421 -0.0666479 4.36514e-17)
(0.499327 -0.0670446 4.2771e-17)
(0.489935 -0.0665303 4.15261e-17)
(0.482019 -0.0664669 4.12529e-17)
(0.473614 -0.0664159 3.88994e-17)
(0.465082 -0.0663609 3.79868e-17)
(0.455989 -0.0660715 3.79598e-17)
(0.446971 -0.065786 3.72953e-17)
(0.437336 -0.0652801 3.58619e-17)
(0.428197 -0.0645208 3.63854e-17)
(0.419561 -0.0638278 3.51214e-17)
(0.411218 -0.0632018 3.44479e-17)
(0.402915 -0.0625997 3.33321e-17)
(0.3947 -0.0619574 3.35915e-17)
(0.386606 -0.0612623 3.28126e-17)
(0.37851 -0.0605375 3.25619e-17)
(0.37067 -0.0597855 3.23372e-17)
(0.36255 -0.0589413 3.25738e-17)
(0.355055 -0.0581143 3.20386e-17)
(0.346958 -0.0572184 3.17209e-17)
(0.339732 -0.0563464 3.0991e-17)
(0.331578 -0.0554022 2.99727e-17)
(0.324592 -0.0544683 2.98804e-17)
(0.316352 -0.0533845 2.89028e-17)
(0.309968 -0.0524232 2.89948e-17)
(0.30183 -0.0514163 2.82219e-17)
(0.295746 -0.0506392 2.7663e-17)
(0.287048 -0.0496671 2.69963e-17)
(0.280785 -0.0486943 2.61185e-17)
(0.272081 -0.0473725 2.59398e-17)
(0.266791 -0.0463845 2.54239e-17)
(0.258377 -0.0450884 2.41147e-17)
(0.253951 -0.0442811 2.37646e-17)
(0.245405 -0.0430288 2.27086e-17)
(0.241499 -0.0422901 2.29422e-17)
(0.232551 -0.0408852 2.1337e-17)
(0.229386 -0.0400912 2.19017e-17)
(0.220561 -0.0386332 1.98871e-17)
(0.218454 -0.038013 2.03565e-17)
(0.209268 -0.036631 1.89082e-17)
(0.207995 -0.0361537 1.79373e-17)
(0.198131 -0.0347207 1.87865e-17)
(0.197779 -0.0342194 1.55003e-17)
(0.186804 -0.0324645 1.89207e-17)
(0.187908 -0.0318644 1.26984e-17)
(0.175863 -0.0298312 1.90251e-17)
(0.179578 -0.0295155 1.06736e-17)
(0.164416 -0.0271114 1.82886e-17)
(0.172012 -0.0270685 9.0806e-18)
(0.152362 -0.0242864 1.76041e-17)
(0.164683 -0.0246409 7.72238e-18)
(0.139783 -0.0221219 1.61389e-17)
(0.157638 -0.0230569 7.54797e-18)
(0.127141 -0.0205006 1.27472e-17)
(0.152957 -0.0230367 9.0979e-18)
(0.112089 -0.0192787 1.07757e-17)
(0.150956 -0.026759 7.12861e-18)
(0.0974528 -0.0212439 1.18141e-17)
(0.143457 -0.0343646 4.98145e-18)
(0.0823294 -0.041891 1.10268e-17)
(0.0930977 -0.00963955 9.68262e-18)
(0.0899321 -0.0482239 1.78211e-18)
(0.113587 -0.0450574 1.99868e-17)
(0.195438 0.0105633 3.18502e-18)
(0.275313 0.00578972 -4.52159e-18)
(0.383757 -0.00345268 1.50906e-17)
(0.50468 0.00301766 -9.62399e-18)
(0.567402 -0.00389753 2.38003e-17)
(0.619456 -0.00162203 -1.35782e-17)
(0.649068 -0.00638162 4.06583e-17)
(0.704361 -0.00208979 -1.43644e-17)
(0.776599 -0.00690265 5.03325e-17)
(0.812536 0.000506091 1.04964e-17)
(0.829813 -0.00351038 4.58745e-17)
(0.832819 0.00464239 -1.8186e-18)
(0.844117 0.00392636 6.48677e-17)
(0.844343 0.0106822 1.12985e-17)
(0.85411 0.0125689 -1.09235e-16)
(0.848215 0.0159021 1.43144e-16)
(0.868017 0.0258328 -1.90231e-17)
(0.846792 0.0206092 2.60127e-16)
(0.872868 0.0350519 3.33232e-17)
(0.827578 0.0199952 -1.80527e-16)
(0.847186 0.0230958 -4.11932e-16)
(0.883372 0.047815 -1.17337e-17)
(0.882356 0.0468064 -3.8856e-16)
(0.852625 0.0610431 -2.54997e-16)
(0.852387 0.0583228 2.42053e-16)
(0.850585 0.0582778 -6.3895e-17)
(0.853872 0.0530118 1.15556e-16)
(0.837388 0.0683004 2.66325e-16)
(0.824689 0.0585948 7.96485e-17)
(0.824654 0.0587428 7.94289e-17)
(0.837296 0.0683609 2.45072e-16)
(0.853903 0.0529009 6.45099e-17)
(0.850526 0.0583205 -6.3722e-17)
(0.852172 0.0583361 3.76758e-16)
(0.853403 0.0609937 -1.90602e-16)
(0.882286 0.0465969 -4.07017e-16)
(0.883499 0.0477003 1.49799e-16)
(0.847975 0.0230769 -2.23173e-16)
(0.827496 0.0199192 -1.68048e-16)
(0.872491 0.0348875 -1.73113e-17)
(0.847621 0.0204557 2.0865e-16)
(0.866195 0.0260913 -1.74695e-16)
(0.848558 0.016034 2.22474e-16)
(0.853055 0.0124875 -1.34488e-16)
(0.84375 0.0108773 2.49787e-17)
(0.842675 0.00424913 4.21111e-17)
(0.83243 0.00484108 7.04475e-17)
(0.829092 -0.00251648 2.99268e-17)
(0.819225 0.000866133 3.86798e-17)
(0.808014 -0.00626519 5.31245e-17)
(0.77262 -0.00225821 -5.63999e-18)
(0.719311 -0.00667236 5.94626e-17)
(0.689318 -0.00205202 -1.75996e-17)
(0.66562 -0.00741022 5.24226e-17)
(0.640551 -0.00377592 -1.89785e-17)
(0.623751 -0.0114062 4.43073e-17)
(0.599819 -0.00410464 -1.69113e-17)
(0.606041 -0.00208019 3.59666e-17)
(0.596586 -0.00791212 -1.43038e-17)
(0.573885 -0.0201054 3.04865e-17)
(0.571156 -0.0145473 1.04629e-17)
(0.572383 -0.0203554 1.08254e-17)
(0.563309 -0.0208615 9.14635e-18)
(0.557887 -0.0221286 1.19037e-17)
(0.557668 -0.0222708 8.62978e-18)
(0.547825 -0.021085 1.23247e-17)
(0.549738 -0.0220427 8.64017e-18)
(0.539549 -0.0200393 1.23699e-17)
(0.54153 -0.0201709 8.89747e-18)
(0.532184 -0.0183279 1.22641e-17)
(0.534336 -0.0179629 9.47932e-18)
(0.526371 -0.0161204 1.20839e-17)
(0.527505 -0.0156043 1.0145e-17)
(0.520405 -0.014264 1.18305e-17)
(0.520612 -0.0136686 1.08458e-17)
(0.514189 -0.0117148 1.17118e-17)
(0.513445 -0.0112097 1.14109e-17)
(0.508095 -0.00931185 1.18068e-17)
(0.507233 -0.00865578 1.18416e-17)
(0.500359 -0.00667475 1.19493e-17)
(0.500532 -0.0057017 1.23903e-17)
(0.495002 -0.00452598 1.21621e-17)
(0.493614 -0.00286826 1.27086e-17)
(0.488486 -0.000279719 1.26691e-17)
(0.489301 0.000918083 1.30093e-17)
(0.485621 0.00223923 1.31536e-17)
(0.48604 0.00311585 1.33885e-17)
(0.480548 0.0045227 1.37247e-17)
(0.478989 0.00638002 1.35914e-17)
(0.475679 0.00854018 1.4422e-17)
(0.475436 0.00952669 1.38826e-17)
(0.471286 0.0120828 1.51036e-17)
(0.471953 0.0139567 1.41241e-17)
(0.469437 0.0157865 1.57798e-17)
(0.469888 0.0175815 1.44905e-17)
(0.467656 0.0197928 1.63876e-17)
(0.469502 0.0214829 1.49844e-17)
(0.467852 0.0232389 1.67058e-17)
(0.468959 0.0251876 1.55952e-17)
(0.468203 0.026923 1.70588e-17)
(0.469489 0.0288714 1.61445e-17)
(0.469261 0.0308538 1.73708e-17)
(0.471264 0.0326799 1.66749e-17)
(0.471185 0.0344082 1.808e-17)
(0.473282 0.0364214 1.74029e-17)
(0.473986 0.0381842 1.83017e-17)
(0.476342 0.040211 1.81661e-17)
(0.47815 0.0421637 1.8415e-17)
(0.481075 0.0438621 1.86533e-17)
(0.482641 0.0456998 1.88256e-17)
(0.485583 0.04763 1.92433e-17)
(0.487657 0.0496751 1.93107e-17)
(0.491417 0.0518506 1.92615e-17)
(0.494546 0.0536566 1.94458e-17)
(0.498212 0.0555943 1.97096e-17)
(0.501781 0.0574798 2.04949e-17)
(0.505745 0.0592916 2.05772e-17)
(0.509344 0.0612483 2.05106e-17)
(0.513752 0.0634652 2.10772e-17)
(0.519064 0.0658876 2.09874e-17)
(0.52536 0.0679646 2.29518e-17)
(0.531359 0.0700121 2.31234e-17)
(0.538153 0.0720801 2.34597e-17)
(0.544963 0.0741041 2.38188e-17)
(0.552866 0.0761647 2.50261e-17)
(0.560648 0.0779291 2.48957e-17)
(0.569014 0.0798557 2.73463e-17)
(0.577588 0.0816589 2.60751e-17)
(0.587226 0.083649 2.65026e-17)
(0.597195 0.0852008 2.71825e-17)
(0.607466 0.0868237 2.73532e-17)
(0.617829 0.0888965 2.91285e-17)
(0.635386 0.0926281 2.92514e-17)
(0.654165 0.0924701 2.90892e-17)
(0.662324 0.0895216 3.01246e-17)
(0.668533 0.0900927 2.99579e-17)
(0.682677 0.0930768 3.12492e-17)
(0.698287 0.0935064 3.09678e-17)
(0.714267 0.0936153 3.18396e-17)
(0.729999 0.0928006 3.56595e-17)
(0.746075 0.0918154 3.52445e-17)
(0.76178 0.0902198 3.92901e-17)
(0.780537 0.0892215 3.99004e-17)
(0.797788 0.0859872 4.24623e-17)
(0.815298 0.0825297 4.38744e-17)
(0.831407 0.0778945 4.6572e-17)
(0.849751 0.0741786 4.61537e-17)
(0.864648 0.067377 4.93528e-17)
(0.879346 0.0615881 4.76832e-17)
(0.890394 0.0531682 5.02297e-17)
(0.903059 0.0470312 4.9441e-17)
(0.908893 0.0354799 5.17007e-17)
(0.917795 0.0280787 5.1468e-17)
(0.917216 0.0159454 5.37183e-17)
(0.916755 0.00831565 5.39999e-17)
(0.918192 -0.00108641 5.62636e-17)
(0.91128 -0.00998908 5.6507e-17)
(0.910956 -0.0151448 5.87128e-17)
(0.907907 -0.0253233 5.91309e-17)
(0.899728 -0.0297733 6.12796e-17)
(0.897153 -0.0381968 6.09774e-17)
(0.889717 -0.0416488 6.25726e-17)
(0.886917 -0.0477329 6.24384e-17)
(0.882361 -0.0527867 6.34715e-17)
(0.876365 -0.0577025 6.3015e-17)
(0.870819 -0.0627446 6.35235e-17)
(0.865051 -0.0655163 6.23218e-17)
(0.861375 -0.0704068 6.2428e-17)
(0.856768 -0.0727765 6.11766e-17)
(0.854632 -0.0780951 6.06084e-17)
(0.850242 -0.0817889 5.88087e-17)
(0.844919 -0.0862587 5.9176e-17)