/*--------------------------------*- C++ -*----------------------------------*\
| =========                 |                                                 |
| \\      /  F ield         | OpenFOAM: The Open Source CFD Toolbox           |
|  \\    /   O peration     | Version:  v2006                                 |
|   \\  /    A nd           | Website:  www.openfoam.com                      |
|    \\/     M anipulation  |                                                 |
\*---------------------------------------------------------------------------*/
FoamFile
{
    version     2.0;
    format      ascii;
    class       volScalarField;
    location    "200";
    object      alphat;
}
// * * * * * * * * * * * * * * * * * * * * * * * * * * * * * * * * * * * * * //

dimensions      [1 -1 -1 0 0 0 0];


internalField   nonuniform List<scalar> 
93840
(
2.88639e-08
2.71419e-08
2.61361e-08
2.54583e-08
2.64539e-08
2.57531e-08
2.63987e-08
2.60832e-08
2.72058e-08
2.76172e-08
2.78665e-08
2.92107e-08
3.0598e-08
3.05962e-08
3.12421e-08
3.21345e-08
3.32261e-08
1.01222e-07
1.76815e-06
9.32248e-06
2.92821e-05
5.19975e-05
4.90191e-05
5.01826e-05
4.94291e-05
3.31705e-05
3.08903e-05
2.18946e-05
1.86251e-05
1.55658e-05
1.30329e-05
1.18177e-05
1.20271e-05
1.17682e-05
1.182e-05
1.18688e-05
1.17165e-05
1.18239e-05
1.1656e-05
1.174e-05
1.161e-05
1.16564e-05
1.15552e-05
1.15727e-05
1.14896e-05
1.1491e-05
1.14108e-05
1.14089e-05
1.1345e-05
1.13273e-05
1.12685e-05
1.12516e-05
1.11848e-05
1.11446e-05
1.11168e-05
1.11375e-05
1.10816e-05
1.10633e-05
1.09855e-05
1.09639e-05
1.0936e-05
1.09113e-05
1.08539e-05
1.08588e-05
1.08382e-05
1.08299e-05
1.08174e-05
1.08297e-05
1.08163e-05
1.08231e-05
1.08247e-05
1.08316e-05
1.08411e-05
1.08644e-05
1.08742e-05
1.09039e-05
1.09232e-05
1.09521e-05
1.09874e-05
1.10251e-05
1.10522e-05
1.10874e-05
1.11226e-05
1.11776e-05
1.12297e-05
1.12798e-05
1.13355e-05
1.13868e-05
1.14375e-05
1.14935e-05
1.15722e-05
1.16565e-05
1.17385e-05
1.18273e-05
1.19164e-05
1.20153e-05
1.2111e-05
1.22088e-05
1.23103e-05
1.24244e-05
1.25395e-05
1.26504e-05
1.2766e-05
1.29961e-05
1.32182e-05
1.32667e-05
1.33029e-05
1.34672e-05
1.36429e-05
1.38133e-05
1.39817e-05
1.41504e-05
1.43168e-05
1.45176e-05
1.47004e-05
1.48834e-05
1.5051e-05
1.52443e-05
1.54043e-05
1.55702e-05
1.57082e-05
1.58745e-05
1.59864e-05
1.61224e-05
1.61893e-05
1.62445e-05
1.63683e-05
1.63533e-05
1.64715e-05
1.65055e-05
1.65324e-05
1.65862e-05
1.65593e-05
1.66639e-05
1.66525e-05
1.67164e-05
1.66965e-05
1.67586e-05
1.67625e-05
1.68292e-05
1.68338e-05
1.68936e-05
1.68864e-05
1.69231e-05
1.69247e-05
1.69722e-05
1.69755e-05
1.70132e-05
1.69964e-05
1.7012e-05
1.69869e-05
1.69909e-05
1.69468e-05
1.69333e-05
1.68704e-05
1.6829e-05
1.67348e-05
1.66541e-05
1.65191e-05
1.64147e-05
1.62996e-05
1.61491e-05
1.59525e-05
1.5755e-05
1.55391e-05
1.52236e-05
1.47465e-05
1.40432e-05
1.30272e-05
1.21322e-05
1.21146e-05
1.11777e-05
5.90785e-06
1.30168e-08
4.77169e-06
7.64809e-06
2.74019e-06
1.80512e-09
4.40616e-08
1.69851e-08
3.85335e-08
7.19951e-08
8.18409e-07
4.89075e-07
1.54329e-08
1.11018e-10
2.16079e-06
3.88477e-06
6.75439e-08
1.81698e-06
1.24163e-05
1.0158e-05
3.52199e-06
7.32587e-06
1.31296e-05
1.59149e-05
1.69877e-05
1.71912e-05
1.702e-05
1.71046e-05
1.702e-05
1.68894e-05
1.67472e-05
1.66729e-05
1.65875e-05
1.65357e-05
1.64219e-05
1.6318e-05
1.62389e-05
1.61315e-05
1.60053e-05
1.58976e-05
1.57656e-05
1.56145e-05
1.55024e-05
1.54082e-05
1.526e-05
1.5138e-05
1.49849e-05
1.48733e-05
1.47523e-05
1.4618e-05
1.44995e-05
1.43979e-05
1.42505e-05
1.4147e-05
1.40022e-05
1.39211e-05
1.37693e-05
1.36624e-05
1.35216e-05
1.34041e-05
1.32946e-05
1.31782e-05
1.30639e-05
1.29651e-05
1.28255e-05
1.27302e-05
1.25911e-05
1.24996e-05
1.23762e-05
1.22732e-05
1.20831e-05
1.18972e-05
1.15886e-05
1.086e-05
9.428e-06
8.52626e-06
8.42472e-06
8.59058e-06
8.32614e-06
8.1649e-06
8.04361e-06
8.01128e-06
7.97012e-06
8.0203e-06
7.84382e-06
7.83397e-06
7.73352e-06
8.02628e-06
8.41353e-06
9.90787e-06
1.14346e-05
1.20366e-05
1.22696e-05
1.25021e-05
1.26746e-05
1.28438e-05
1.28104e-05
1.2829e-05
1.30032e-05
1.31978e-05
1.31492e-05
1.30295e-05
1.29348e-05
1.28371e-05
1.26288e-05
1.2318e-05
1.19377e-05
1.16975e-05
1.15469e-05
1.1449e-05
1.14354e-05
1.13734e-05
1.13538e-05
1.11496e-05
1.09895e-05
1.09254e-05
1.09227e-05
1.12437e-05
1.07965e-05
9.7285e-06
9.14249e-06
8.79926e-06
9.01594e-06
9.46799e-06
9.84329e-06
1.00397e-05
1.01365e-05
1.01441e-05
1.0144e-05
1.00861e-05
1.00437e-05
9.93287e-06
9.85226e-06
9.71069e-06
9.62838e-06
9.47741e-06
9.38987e-06
9.22854e-06
9.1355e-06
8.96294e-06
8.8777e-06
8.70503e-06
8.62746e-06
8.43628e-06
8.33319e-06
8.08315e-06
7.9168e-06
7.59978e-06
7.38469e-06
7.0538e-06
6.86286e-06
6.57437e-06
6.44635e-06
6.19227e-06
6.113e-06
5.86817e-06
5.84306e-06
5.60071e-06
5.67347e-06
5.38711e-06
5.7002e-06
5.2299e-06
6.05618e-06
4.76261e-06
7.72138e-06
6.36411e-06
1.1257e-05
1.36436e-05
2.23175e-05
3.25849e-05
3.09158e-05
4.93265e-05
4.81384e-05
4.95314e-05
6.00555e-05
3.57514e-05
1.18806e-05
2.3449e-06
1.40926e-07
3.53682e-08
3.08919e-08
3.01045e-08
2.83958e-08
2.96657e-08
2.91899e-08
2.79425e-08
2.76965e-08
2.71624e-08
2.60472e-08
2.63397e-08
2.58414e-08
2.63464e-08
2.55066e-08
2.60757e-08
2.71925e-08
2.87234e-08
2.87204e-08
2.72407e-08
2.60357e-08
2.54596e-08
2.63571e-08
2.57727e-08
2.61351e-08
2.62723e-08
2.70126e-08
2.75132e-08
2.79215e-08
2.87733e-08
2.92036e-08
2.94041e-08
2.9241e-08
2.99644e-08
3.43466e-08
7.89426e-08
1.10746e-06
6.56303e-06
2.24192e-05
4.42188e-05
4.83224e-05
5.23934e-05
5.24489e-05
4.04979e-05
3.83339e-05
3.05116e-05
2.6017e-05
2.16732e-05
1.94213e-05
1.72293e-05
1.67402e-05
1.67376e-05
1.68333e-05
1.67179e-05
1.69248e-05
1.67724e-05
1.70237e-05
1.67936e-05
1.70966e-05
1.68053e-05
1.7158e-05
1.68465e-05
1.72132e-05
1.69104e-05
1.72476e-05
1.69582e-05
1.7283e-05
1.70253e-05
1.73065e-05
1.70891e-05
1.73494e-05
1.71289e-05
1.73118e-05
1.71484e-05
1.73744e-05
1.72667e-05
1.74605e-05
1.73075e-05
1.74572e-05
1.73823e-05
1.7498e-05
1.73929e-05
1.75338e-05
1.74677e-05
1.75589e-05
1.75102e-05
1.76116e-05
1.75742e-05
1.76605e-05
1.76494e-05
1.77131e-05
1.77096e-05
1.77818e-05
1.77856e-05
1.7846e-05
1.78533e-05
1.79095e-05
1.79329e-05
1.79913e-05
1.80118e-05
1.80565e-05
1.80797e-05
1.81294e-05
1.81617e-05
1.82027e-05
1.82415e-05
1.8282e-05
1.83048e-05
1.83306e-05
1.83594e-05
1.83864e-05
1.84091e-05
1.84247e-05
1.84319e-05
1.84392e-05
1.84366e-05
1.84245e-05
1.84121e-05
1.83939e-05
1.83736e-05
1.83202e-05
1.82459e-05
1.82107e-05
1.82263e-05
1.81833e-05
1.80911e-05
1.80146e-05
1.79287e-05
1.78407e-05
1.77522e-05
1.76519e-05
1.75417e-05
1.74278e-05
1.73149e-05
1.71906e-05
1.70603e-05
1.69284e-05
1.67952e-05
1.66556e-05
1.65267e-05
1.64024e-05
1.62697e-05
1.61814e-05
1.61102e-05
1.59925e-05
1.5962e-05
1.58552e-05
1.57707e-05
1.57341e-05
1.56555e-05
1.55712e-05
1.55203e-05
1.54035e-05
1.53444e-05
1.52524e-05
1.51808e-05
1.50693e-05
1.49941e-05
1.48439e-05
1.4771e-05
1.46348e-05
1.45414e-05
1.43736e-05
1.42633e-05
1.407e-05
1.39297e-05
1.37254e-05
1.35673e-05
1.33309e-05
1.31321e-05
1.28652e-05
1.26213e-05
1.23074e-05
1.19632e-05
1.15229e-05
1.10498e-05
1.05e-05
9.88473e-06
9.06983e-06
8.01391e-06
6.93053e-06
6.29731e-06
6.10505e-06
5.52981e-06
4.02792e-06
2.11836e-06
7.57803e-07
9.45872e-07
1.80112e-06
1.51362e-06
5.42006e-08
6.50692e-11
4.01642e-09
1.20979e-08
6.21836e-09
8.56915e-08
3.4517e-10
8.93073e-08
1.68026e-07
3.32898e-08
2.48062e-08
1.7472e-07
8.59246e-08
8.09369e-09
1.02999e-08
2.29495e-08
8.16943e-12
6.85215e-08
1.06501e-06
3.00916e-07
4.55024e-07
7.23762e-08
2.2434e-06
4.57924e-06
5.30973e-06
5.08681e-06
5.71854e-06
7.13911e-06
8.2052e-06
8.77512e-06
9.26631e-06
9.97633e-06
1.06807e-05
1.12623e-05
1.17074e-05
1.2067e-05
1.24162e-05
1.26897e-05
1.28859e-05
1.30455e-05
1.31406e-05
1.32242e-05
1.3292e-05
1.3397e-05
1.34585e-05
1.35139e-05
1.3529e-05
1.357e-05
1.35602e-05
1.35691e-05
1.36002e-05
1.36845e-05
1.36878e-05
1.37733e-05
1.37637e-05
1.38683e-05
1.38453e-05
1.39664e-05
1.38748e-05
1.38596e-05
1.37811e-05
1.37766e-05
1.36973e-05
1.37768e-05
1.37048e-05
1.37691e-05
1.37274e-05
1.37768e-05
1.37027e-05
1.38368e-05
1.35589e-05
1.3841e-05
1.35748e-05
1.33172e-05
1.33906e-05
1.36698e-05
1.37477e-05
1.33564e-05
1.31728e-05
1.29069e-05
1.24701e-05
1.26585e-05
1.23005e-05
1.21109e-05
1.14776e-05
1.13875e-05
1.18392e-05
1.35483e-05
1.50474e-05
1.82918e-05
2.12781e-05
2.21804e-05
2.26716e-05
2.31759e-05
2.34514e-05
2.36886e-05
2.38655e-05
2.42175e-05
2.42098e-05
2.40388e-05
2.3913e-05
2.3932e-05
2.3352e-05
2.20285e-05
2.05905e-05
1.92736e-05
1.76434e-05
1.66911e-05
1.64312e-05
1.65981e-05
1.73389e-05
1.77233e-05
1.84479e-05
1.80607e-05
1.77388e-05
1.77952e-05
1.83667e-05
2.07429e-05
1.95414e-05
1.52681e-05
1.24161e-05
1.12805e-05
1.26714e-05
1.5661e-05
1.81737e-05
2.00086e-05
2.09235e-05
2.17218e-05
2.19512e-05
2.23786e-05
2.22672e-05
2.2513e-05
2.22216e-05
2.23952e-05
2.19773e-05
2.20885e-05
2.15568e-05
2.16383e-05
2.10663e-05
2.11616e-05
2.06157e-05
2.07383e-05
2.01846e-05
2.02515e-05
1.96256e-05
1.95368e-05
1.87728e-05
1.8418e-05
1.74607e-05
1.68659e-05
1.58808e-05
1.53346e-05
1.45662e-05
1.42412e-05
1.36716e-05
1.34619e-05
1.29822e-05
1.28683e-05
1.24447e-05
1.25173e-05
1.22287e-05
1.26002e-05
1.27762e-05
1.20986e-05
1.45703e-05
1.18945e-05
1.5766e-05
1.76721e-05
3.20676e-05
3.88022e-05
3.44772e-05
5.36403e-05
4.58435e-05
5.08914e-05
7.19945e-05
4.39863e-05
1.49693e-05
3.14177e-06
2.78296e-07
4.44169e-08
3.25375e-08
3.23418e-08
2.98596e-08
2.94439e-08
2.90466e-08
2.80227e-08
2.78012e-08
2.7168e-08
2.59813e-08
2.65455e-08
2.58294e-08
2.63305e-08
2.54189e-08
2.60485e-08
2.70959e-08
2.87424e-08
2.88259e-08
2.7134e-08
2.60657e-08
2.54739e-08
2.62278e-08
2.57853e-08
2.61931e-08
2.60777e-08
2.69414e-08
2.76799e-08
2.78806e-08
2.88624e-08
2.98844e-08
3.11919e-08
3.23579e-08
2.95076e-08
3.2145e-08
4.5806e-08
3.60924e-07
3.96774e-06
1.56674e-05
3.63614e-05
4.6345e-05
5.3051e-05
5.36911e-05
4.55994e-05
4.47061e-05
3.93535e-05
3.64123e-05
3.32995e-05
3.14148e-05
3.0066e-05
2.84661e-05
2.9151e-05
2.86972e-05
2.87867e-05
2.88693e-05
2.88069e-05
2.89604e-05
2.88923e-05
2.90319e-05
2.89601e-05
2.91136e-05
2.9033e-05
2.92069e-05
2.91079e-05
2.92852e-05
2.91649e-05
2.93713e-05
2.92332e-05
2.94341e-05
2.92971e-05
2.94873e-05
2.93129e-05
2.95024e-05
2.93796e-05
2.95937e-05
2.94877e-05
2.96763e-05
2.9505e-05
2.96495e-05
2.95331e-05
2.96555e-05
2.95062e-05
2.96591e-05
2.95383e-05
2.96462e-05
2.95406e-05
2.96445e-05
2.95459e-05
2.9635e-05
2.95542e-05
2.96135e-05
2.95429e-05
2.95984e-05
2.95322e-05
2.95679e-05
2.94929e-05
2.95195e-05
2.94575e-05
2.94623e-05
2.93809e-05
2.93527e-05
2.92754e-05
2.92443e-05
2.91586e-05
2.91068e-05
2.90087e-05
2.89238e-05
2.87827e-05
2.86654e-05
2.8535e-05
2.83948e-05
2.82359e-05
2.80664e-05
2.78653e-05
2.76698e-05
2.7427e-05
2.71764e-05
2.69125e-05
2.66337e-05
2.63405e-05
2.59995e-05
2.56474e-05
2.53809e-05
2.51418e-05
2.47873e-05
2.4365e-05
2.39736e-05
2.35525e-05
2.31413e-05
2.27195e-05
2.22793e-05
2.183e-05
2.13866e-05
2.09355e-05
2.04823e-05
2.00301e-05
1.96002e-05
1.91563e-05
1.87413e-05
1.83475e-05
1.79955e-05
1.76258e-05
1.73528e-05
1.70757e-05
1.67713e-05
1.65762e-05
1.62188e-05
1.60072e-05
1.57532e-05
1.55073e-05
1.52152e-05
1.49632e-05
1.46429e-05
1.43808e-05
1.40657e-05
1.37597e-05
1.34196e-05
1.30873e-05
1.27024e-05
1.23727e-05
1.19677e-05
1.15841e-05
1.11091e-05
1.06649e-05
1.01181e-05
9.59099e-06
8.95535e-06
8.31369e-06
7.5629e-06
6.84477e-06
6.09549e-06
5.48323e-06
4.91669e-06
4.31253e-06
3.45115e-06
2.58534e-06
2.06291e-06
1.84922e-06
1.29961e-06
4.72479e-07
1.4539e-07
1.5882e-07
1.22212e-07
6.69817e-08
4.23523e-08
5.63381e-08
7.99775e-08
4.81482e-08
2.0424e-08
3.38051e-08
9.5581e-08
1.67493e-07
1.59517e-07
1.11058e-07
2.16132e-07
1.19034e-07
1.73059e-07
1.98167e-09
1.85391e-08
2.39731e-07
1.48187e-07
3.25163e-09
7.68219e-08
8.12369e-08
5.70778e-08
8.39576e-08
6.92544e-08
7.93599e-08
3.44337e-08
3.0071e-08
5.53818e-08
5.96775e-09
5.10241e-09
3.98735e-07
5.58512e-07
2.52782e-08
1.2621e-07
1.12354e-06
1.37654e-06
1.20933e-06
1.45626e-06
2.10871e-06
2.68357e-06
3.12114e-06
3.66554e-06
4.39835e-06
5.23782e-06
6.07248e-06
6.85589e-06
7.59942e-06
8.28792e-06
8.94107e-06
9.50831e-06
1.00507e-05
1.04954e-05
1.09471e-05
1.12631e-05
1.16517e-05
1.19053e-05
1.22434e-05
1.25112e-05
1.29086e-05
1.31162e-05
1.35226e-05
1.36679e-05
1.4084e-05
1.41864e-05
1.46327e-05
1.46849e-05
1.49909e-05
1.50204e-05
1.53227e-05
1.53082e-05
1.56587e-05
1.57114e-05
1.6015e-05
1.61059e-05
1.6367e-05
1.64434e-05
1.68866e-05
1.66117e-05
1.73055e-05
1.71336e-05
1.71116e-05
1.74771e-05
1.82773e-05
1.86948e-05
1.82201e-05
1.84002e-05
1.8181e-05
1.74394e-05
1.81922e-05
1.78363e-05
1.74489e-05
1.64468e-05
1.63062e-05
1.78806e-05
2.18151e-05
2.63349e-05
3.31825e-05
3.97452e-05
4.16558e-05
4.29247e-05
4.4278e-05
4.51339e-05
4.57488e-05
4.61154e-05
4.69352e-05
4.71469e-05
4.67777e-05
4.62641e-05
4.59743e-05
4.4355e-05
4.05941e-05
3.62646e-05
3.27065e-05
2.91565e-05
2.68345e-05
2.59402e-05
2.59285e-05
2.73084e-05
2.81101e-05
2.96937e-05
2.93108e-05
2.8506e-05
2.80854e-05
2.88331e-05
3.49977e-05
3.34845e-05
2.56736e-05
1.99425e-05
1.78194e-05
1.96108e-05
2.41583e-05
2.90591e-05
3.3655e-05
3.70654e-05
3.99787e-05
4.17827e-05
4.33695e-05
4.39691e-05
4.46742e-05
4.45393e-05
4.47683e-05
4.42037e-05
4.40928e-05
4.32204e-05
4.28828e-05
4.1899e-05
4.15189e-05
4.06157e-05
4.02776e-05
3.94158e-05
3.89695e-05
3.79282e-05
3.71262e-05
3.56768e-05
3.43268e-05
3.23754e-05
3.05842e-05
2.84425e-05
2.67426e-05
2.49612e-05
2.38224e-05
2.25485e-05
2.18329e-05
2.08157e-05
2.03457e-05
1.9414e-05
1.92495e-05
1.84798e-05
1.88154e-05
1.87809e-05
1.92459e-05
2.08028e-05
2.16716e-05
2.51462e-05
2.63069e-05
4.02381e-05
4.059e-05
4.10058e-05
6.21138e-05
4.23462e-05
5.84359e-05
8.96279e-05
5.48607e-05
1.85177e-05
4.02478e-06
4.19295e-07
5.26249e-08
3.55069e-08
3.05696e-08
2.84246e-08
2.92267e-08
2.91928e-08
2.78256e-08
2.77423e-08
2.70697e-08
2.60436e-08
2.6383e-08
2.59389e-08
2.6324e-08
2.53962e-08
2.605e-08
2.71409e-08
2.87711e-08
2.87655e-08
2.72157e-08
2.60373e-08
2.5475e-08
2.61876e-08
2.58846e-08
2.60192e-08
2.63003e-08
2.6894e-08
2.75026e-08
2.79076e-08
2.83702e-08
2.84333e-08
2.9463e-08
3.05288e-08
2.97402e-08
3.30252e-08
3.13221e-08
8.52104e-08
2.04828e-06
1.01939e-05
2.89315e-05
4.36561e-05
5.27163e-05
5.40301e-05
4.88436e-05
4.84925e-05
4.46831e-05
4.26349e-05
4.03322e-05
3.91207e-05
3.80739e-05
3.77264e-05
3.72748e-05
3.73507e-05
3.71192e-05
3.73184e-05
3.71707e-05
3.73711e-05
3.72803e-05
3.74411e-05
3.73755e-05
3.75228e-05
3.74662e-05
3.76077e-05
3.7555e-05
3.7687e-05
3.76242e-05
3.77713e-05
3.76946e-05
3.78278e-05
3.77489e-05
3.78689e-05
3.77623e-05
3.79119e-05
3.782e-05
3.79536e-05
3.78621e-05
3.80069e-05
3.78652e-05
3.79472e-05
3.78157e-05
3.79259e-05
3.77589e-05
3.78651e-05
3.77256e-05
3.78045e-05
3.7659e-05
3.77208e-05
3.75856e-05
3.76313e-05
3.75026e-05
3.7519e-05
3.73944e-05
3.73971e-05
3.72684e-05
3.72466e-05
3.71014e-05
3.70657e-05
3.69131e-05
3.68447e-05
3.66673e-05
3.65538e-05
3.63758e-05
3.62411e-05
3.60396e-05
3.58767e-05
3.56454e-05
3.54362e-05
3.51504e-05
3.48993e-05
3.46118e-05
3.43145e-05
3.39898e-05
3.36479e-05
3.32574e-05
3.28721e-05
3.24175e-05
3.19598e-05
3.14764e-05
3.09738e-05
3.04563e-05
2.98986e-05
2.93084e-05
2.8777e-05
2.82849e-05
2.77084e-05
2.70347e-05
2.63801e-05
2.56837e-05
2.50129e-05
2.43223e-05
2.36233e-05
2.29126e-05
2.22155e-05
2.15042e-05
2.08136e-05
2.01264e-05
1.948e-05
1.88088e-05
1.81989e-05
1.76087e-05
1.70999e-05
1.65245e-05
1.6118e-05
1.56617e-05
1.51916e-05
1.48035e-05
1.42986e-05
1.39118e-05
1.34695e-05
1.30678e-05
1.25804e-05
1.21576e-05
1.16291e-05
1.1171e-05
1.06324e-05
1.00951e-05
9.49552e-06
8.89807e-06
8.21951e-06
7.57592e-06
6.82438e-06
6.09815e-06
5.27605e-06
4.52549e-06
3.76721e-06
3.15427e-06
2.51029e-06
1.89206e-06
1.29954e-06
9.49429e-07
5.42291e-07
2.74512e-07
1.63989e-07
1.56973e-07
6.19695e-08
2.0169e-08
2.89484e-08
5.454e-08
2.65187e-08
2.05747e-08
3.4863e-08
2.74039e-08
3.64115e-08
4.62697e-08
3.2574e-08
2.84594e-08
4.52494e-08
4.10859e-08
4.93992e-08
3.97202e-08
3.34043e-08
3.02933e-08
3.90376e-08
3.41024e-08
1.93913e-08
7.65166e-09
8.4085e-08
1.17523e-07
1.95842e-07
2.39548e-07
5.56288e-08
1.25386e-07
2.43057e-07
1.31984e-07
5.44913e-08
2.53368e-08
1.67768e-08
3.85321e-08
1.71718e-08
1.69896e-08
3.09019e-08
1.63566e-08
2.29708e-09
9.61409e-09
9.17512e-09
3.87312e-10
4.99047e-10
7.92527e-09
3.36611e-09
1.88904e-09
6.39149e-09
1.77269e-08
4.12586e-08
6.90675e-08
9.03769e-08
2.05353e-07
4.60332e-07
7.99341e-07
1.14531e-06
1.66208e-06
2.17576e-06
2.80856e-06
3.38965e-06
4.08692e-06
4.73831e-06
5.53596e-06
6.15372e-06
6.95217e-06
7.57117e-06
8.35523e-06
8.92671e-06
9.71377e-06
1.01292e-05
1.08686e-05
1.118e-05
1.18982e-05
1.21215e-05
1.28857e-05
1.30728e-05
1.37124e-05
1.38476e-05
1.44733e-05
1.45453e-05
1.51696e-05
1.53314e-05
1.5835e-05
1.60771e-05
1.65475e-05
1.67145e-05
1.74581e-05
1.73111e-05
1.81779e-05
1.81273e-05
1.87353e-05
1.90793e-05
2.00257e-05
2.06714e-05
2.00548e-05
2.06229e-05
2.05714e-05
1.95785e-05
2.0771e-05
2.06166e-05
1.99857e-05
1.88522e-05
1.88446e-05
2.12866e-05
2.69135e-05
3.37162e-05
4.3624e-05
5.33717e-05
5.67056e-05
5.87549e-05
6.11336e-05
6.28719e-05
6.41761e-05
6.49481e-05
6.62806e-05
6.68507e-05
6.65197e-05
6.57287e-05
6.50409e-05
6.25575e-05
5.69366e-05
5.00473e-05
4.43336e-05
3.91105e-05
3.55064e-05
3.3869e-05
3.34656e-05
3.51201e-05
3.62911e-05
3.83988e-05
3.82792e-05
3.72732e-05
3.61499e-05
3.63693e-05
4.45393e-05
4.38733e-05
3.45338e-05
2.70316e-05
2.43312e-05
2.6207e-05
3.12692e-05
3.72515e-05
4.33463e-05
4.84689e-05
5.30971e-05
5.65449e-05
5.94767e-05
6.12311e-05
6.26555e-05
6.31071e-05
6.35045e-05
6.30919e-05
6.27506e-05
6.17364e-05
6.09161e-05
5.96456e-05
5.86984e-05
5.75036e-05
5.66225e-05
5.55079e-05
5.45386e-05
5.32215e-05
5.18446e-05
5.00049e-05
4.79692e-05
4.54451e-05
4.2766e-05
3.97927e-05
3.69731e-05
3.42246e-05
3.19844e-05
2.99509e-05
2.83943e-05
2.69088e-05
2.57648e-05
2.45319e-05
2.36799e-05
2.26787e-05
2.23084e-05
2.23442e-05
2.28613e-05
2.47113e-05
2.64974e-05
3.09911e-05
3.33904e-05
4.60417e-05
3.96904e-05
4.62752e-05
6.71614e-05
4.10929e-05
7.24738e-05
0.000108642
6.66942e-05
2.22319e-05
4.79159e-06
5.21546e-07
4.95785e-08
3.03853e-08
3.28529e-08
2.88064e-08
2.87295e-08
2.88048e-08
2.80525e-08
2.77758e-08
2.72404e-08
2.61195e-08
2.65808e-08
2.58438e-08
2.62823e-08
2.54091e-08
2.60891e-08
2.7124e-08
2.88443e-08
2.88449e-08
2.70397e-08
2.60951e-08
2.54978e-08
2.61724e-08
2.57734e-08
2.63157e-08
2.60794e-08
2.70971e-08
2.76411e-08
2.78728e-08
2.84819e-08
2.87077e-08
3.02978e-08
3.28505e-08
2.73195e-08
3.18199e-08
3.47718e-08
3.5836e-08
5.43835e-07
5.66965e-06
2.14894e-05
3.97792e-05
5.12947e-05
5.30873e-05
5.06485e-05
5.09022e-05
4.86331e-05
4.7411e-05
4.6103e-05
4.51461e-05
4.4617e-05
4.40113e-05
4.40222e-05
4.37005e-05
4.38268e-05
4.36902e-05
4.38131e-05
4.37801e-05
4.38765e-05
4.3889e-05
4.39441e-05
4.39945e-05
4.40181e-05
4.40861e-05
4.40967e-05
4.41742e-05
4.4156e-05
4.42594e-05
4.4224e-05
4.43036e-05
4.42694e-05
4.43324e-05
4.42735e-05
4.4381e-05
4.43084e-05
4.43647e-05
4.4282e-05
4.43881e-05
4.42661e-05
4.4279e-05
4.4162e-05
4.42312e-05
4.40609e-05
4.41018e-05
4.39593e-05
4.39784e-05
4.38067e-05
4.38036e-05
4.36406e-05
4.36238e-05
4.3451e-05
4.34046e-05
4.3223e-05
4.3156e-05
4.2965e-05
4.28684e-05
4.26485e-05
4.25237e-05
4.22812e-05
4.21182e-05
4.18408e-05
4.16248e-05
4.13345e-05
4.10753e-05
4.07495e-05
4.04553e-05
4.0085e-05
3.97377e-05
3.9302e-05
3.89034e-05
3.8445e-05
3.79793e-05
3.74781e-05
3.69503e-05
3.63614e-05
3.57748e-05
3.51024e-05
3.44326e-05
3.37248e-05
3.29971e-05
3.22585e-05
3.1485e-05
3.0636e-05
2.98177e-05
2.90781e-05
2.83029e-05
2.73856e-05
2.64796e-05
2.55229e-05
2.46149e-05
2.36774e-05
2.27522e-05
2.18096e-05
2.08933e-05
1.99582e-05
1.90763e-05
1.81905e-05
1.73724e-05
1.65045e-05
1.5744e-05
1.4973e-05
1.43207e-05
1.3563e-05
1.302e-05
1.23643e-05
1.1764e-05
1.11742e-05
1.05197e-05
9.92753e-06
9.2771e-06
8.66759e-06
7.9347e-06
7.26923e-06
6.45785e-06
5.76e-06
4.9409e-06
4.22394e-06
3.51031e-06
2.92428e-06
2.32443e-06
1.81838e-06
1.23659e-06
9.20032e-07
4.98482e-07
2.92108e-07
1.33729e-07
1.33234e-07
6.51374e-08
5.31026e-08
3.50568e-08
6.20293e-08
3.19317e-08
7.25498e-08
4.43699e-08
7.21095e-08
5.0262e-08
7.11702e-08
5.23808e-08
6.58571e-08
5.82007e-08
6.04988e-08
6.21068e-08
6.27832e-08
7.63378e-08
6.17002e-08
7.25102e-08
5.83488e-08
5.35495e-08
5.21145e-08
6.58561e-08
7.34507e-08
1.00733e-07
7.08406e-08
6.9417e-08
2.90168e-08
7.16177e-08
3.73587e-08
1.29333e-07
1.20069e-07
5.17338e-08
8.19631e-08
3.00424e-08
4.44145e-08
9.14384e-08
1.12938e-09
1.31234e-08
1.67471e-08
2.09149e-08
2.82959e-08
1.73278e-08
2.22502e-08
2.21277e-08
1.77271e-08
1.5451e-08
2.16006e-08
2.6244e-08
1.67584e-08
1.78286e-08
1.79175e-08
1.36536e-08
1.30929e-08
1.01341e-08
1.30082e-08
7.2787e-09
1.58449e-08
6.7206e-09
2.07084e-08
9.94566e-09
2.64933e-08
1.09803e-08
3.19576e-08
2.65941e-08
1.10512e-07
1.07734e-07
3.63383e-07
3.98327e-07
8.87409e-07
1.07775e-06
1.7133e-06
1.98601e-06
2.78996e-06
3.3314e-06
4.33224e-06
4.86841e-06
5.93565e-06
6.4318e-06
7.50387e-06
7.90212e-06
9.01668e-06
9.40324e-06
1.04201e-05
1.06584e-05
1.16125e-05
1.18139e-05
1.27016e-05
1.30319e-05
1.37335e-05
1.41193e-05
1.48286e-05
1.51088e-05
1.61246e-05
1.6115e-05
1.72163e-05
1.72409e-05
1.84973e-05
1.89729e-05
1.97977e-05
2.06508e-05
1.98873e-05
2.07738e-05
2.10308e-05
1.99145e-05
2.13711e-05
2.15855e-05
2.08266e-05
1.95832e-05
1.98007e-05
2.30946e-05
3.01371e-05
3.88539e-05
5.13259e-05
6.41207e-05
6.9261e-05
7.23761e-05
7.60358e-05
7.9023e-05
8.14075e-05
8.28997e-05
8.49641e-05
8.61632e-05
8.61458e-05
8.5163e-05
8.40297e-05
8.08167e-05
7.37232e-05
6.44348e-05
5.63595e-05
4.92776e-05
4.42266e-05
4.16587e-05
4.0669e-05
4.23427e-05
4.38967e-05
4.64127e-05
4.66671e-05
4.56987e-05
4.38463e-05
4.31718e-05
5.22422e-05
5.28449e-05
4.31375e-05
3.44998e-05
3.13555e-05
3.32235e-05
3.84276e-05
4.49025e-05
5.1866e-05
5.82211e-05
6.42501e-05
6.92286e-05
7.35697e-05
7.66484e-05
7.90485e-05
8.03236e-05
8.1143e-05
8.1056e-05
8.06795e-05
7.96092e-05
7.84443e-05
7.68842e-05
7.54492e-05
7.3888e-05
7.25196e-05
7.106e-05
6.96501e-05
6.80116e-05
6.62107e-05
6.4025e-05
6.15223e-05
5.85568e-05
5.52621e-05
5.16091e-05
4.78664e-05
4.41025e-05
4.06636e-05
3.75261e-05
3.48687e-05
3.25206e-05
3.05277e-05
2.87215e-05
2.71464e-05
2.56236e-05
2.448e-05
2.40667e-05
2.44543e-05
2.63855e-05
2.91216e-05
3.41938e-05
3.84148e-05
5.02888e-05
4.10104e-05
5.15469e-05
6.8887e-05
4.86769e-05
9.29497e-05
0.000129454
8.03705e-05
2.66846e-05
5.61523e-06
6.49045e-07
4.21403e-08
2.5111e-08
3.16392e-08
2.87174e-08
2.82113e-08
2.86431e-08
2.8037e-08
2.76279e-08
2.71158e-08
2.59898e-08
2.629e-08
2.59335e-08
2.63051e-08
2.53621e-08
2.60786e-08
2.71511e-08
2.88177e-08
2.86814e-08
2.71663e-08
2.60794e-08
2.54318e-08
2.6296e-08
2.56452e-08
2.60351e-08
2.63037e-08
2.6916e-08
2.76585e-08
2.79344e-08
2.8179e-08
2.78161e-08
2.83013e-08
3.09686e-08
3.0962e-08
3.10796e-08
2.33413e-08
1.63461e-08
2.65513e-08
2.55542e-06
1.45876e-05
3.46291e-05
4.87617e-05
5.1417e-05
5.11453e-05
5.19981e-05
5.08301e-05
5.02751e-05
4.94743e-05
4.90748e-05
4.86972e-05
4.84943e-05
4.83512e-05
4.83267e-05
4.82611e-05
4.83181e-05
4.83107e-05
4.8398e-05
4.8424e-05
4.85009e-05
4.85272e-05
4.86084e-05
4.86306e-05
4.86981e-05
4.87249e-05
4.87891e-05
4.87928e-05
4.88804e-05
4.88681e-05
4.89184e-05
4.89195e-05
4.89408e-05
4.89076e-05
4.89899e-05
4.89381e-05
4.89376e-05
4.88584e-05
4.89276e-05
4.88204e-05
4.87826e-05
4.86684e-05
4.87124e-05
4.85362e-05
4.85137e-05
4.8365e-05
4.83275e-05
4.81305e-05
4.80579e-05
4.78704e-05
4.77817e-05
4.75668e-05
4.74461e-05
4.72141e-05
4.70621e-05
4.68056e-05
4.66209e-05
4.63269e-05
4.61031e-05
4.57661e-05
4.54964e-05
4.5115e-05
4.47844e-05
4.43757e-05
4.39771e-05
4.35224e-05
4.30839e-05
4.25727e-05
4.20767e-05
4.1489e-05
4.0934e-05
4.02981e-05
3.96569e-05
3.89732e-05
3.82508e-05
3.7459e-05
3.66653e-05
3.57726e-05
3.48908e-05
3.3959e-05
3.30098e-05
3.20525e-05
3.10627e-05
2.99441e-05
2.88421e-05
2.78725e-05
2.69144e-05
2.57703e-05
2.4638e-05
2.34456e-05
2.23325e-05
2.11788e-05
2.0068e-05
1.89284e-05
1.78365e-05
1.67152e-05
1.56837e-05
1.46358e-05
1.36807e-05
1.26444e-05
1.17607e-05
1.08153e-05
1.00336e-05
9.05801e-06
8.35868e-06
7.45138e-06
6.65544e-06
5.7793e-06
4.97933e-06
4.20283e-06
3.49635e-06
2.8696e-06
2.22083e-06
1.72548e-06
1.17156e-06
8.4935e-07
4.12368e-07
2.53793e-07
1.34466e-07
7.87728e-08
4.94993e-08
4.87299e-08
1.91709e-08
4.60391e-08
2.16209e-08
3.41716e-08
2.38755e-08
3.56776e-08
2.92195e-08
3.7953e-08
2.93021e-08
4.25474e-08
2.31152e-08
4.08598e-08
1.72634e-08
3.68064e-08
1.85122e-08
3.82537e-08
2.35743e-08
3.53518e-08
2.65007e-08
3.63926e-08
3.7263e-08
3.64316e-08
3.25448e-08
3.05721e-08
3.96205e-08
4.49759e-08
6.19826e-08
4.88034e-08
6.42803e-08
3.98614e-08
6.56903e-08
3.59443e-08
1.00106e-07
4.79491e-08
1.08112e-07
2.88709e-08
3.6114e-08
6.08724e-08
9.3123e-08
1.37701e-08
4.19776e-08
1.07469e-07
1.24545e-07
7.65048e-09
1.69507e-07
7.01144e-08
8.89966e-08
5.01563e-08
4.87377e-08
3.16817e-08
3.30251e-08
1.59635e-08
1.80535e-08
1.01831e-08
1.33387e-08
8.72586e-09
1.13644e-08
1.42029e-08
1.24159e-08
2.22825e-08
1.2416e-08
3.15772e-08
1.01778e-08
3.83167e-08
6.43669e-09
4.49015e-08
3.20945e-09
5.86119e-08
9.72139e-10
7.54663e-08
4.34863e-11
9.00964e-08
1.12489e-13
1.07797e-07
1.11762e-11
1.60965e-07
5.64305e-11
2.4151e-07
1.74843e-09
3.12117e-07
1.92564e-08
7.88739e-07
2.66047e-07
1.31518e-06
1.18835e-06
2.35652e-06
2.24505e-06
3.45995e-06
3.74806e-06
5.13007e-06
5.43789e-06
6.79133e-06
7.17935e-06
8.40653e-06
8.96519e-06
9.9108e-06
1.04774e-05
1.14266e-05
1.18511e-05
1.31581e-05
1.32853e-05
1.46235e-05
1.47005e-05
1.65726e-05
1.73348e-05
1.79145e-05
1.89559e-05
1.80363e-05
1.91485e-05
1.97909e-05
1.85829e-05
2.02858e-05
2.09406e-05
1.99377e-05
1.86347e-05
1.93073e-05
2.34531e-05
3.17153e-05
4.19215e-05
5.63923e-05
7.19839e-05
7.92824e-05
8.35367e-05
8.84695e-05
9.28518e-05
9.6563e-05
9.90588e-05
0.000102052
0.000104081
0.000104654
0.000103685
0.00010221
9.85225e-05
9.05253e-05
7.93259e-05
6.89176e-05
5.98019e-05
5.31083e-05
4.94103e-05
4.76508e-05
4.9077e-05
5.09783e-05
5.38421e-05
5.45068e-05
5.37555e-05
5.13111e-05
4.96184e-05
5.86366e-05
6.05431e-05
5.13619e-05
4.21734e-05
3.86448e-05
4.04437e-05
4.56463e-05
5.22901e-05
5.96694e-05
6.68043e-05
7.38525e-05
8.00948e-05
8.57198e-05
9.00986e-05
9.35731e-05
9.57996e-05
9.72422e-05
9.7645e-05
9.74495e-05
9.6471e-05
9.51446e-05
9.33912e-05
9.15891e-05
8.96872e-05
8.78895e-05
8.60788e-05
8.42757e-05
8.23341e-05
8.01964e-05
7.77417e-05
7.49128e-05
7.16578e-05
6.7958e-05
6.38593e-05
5.94655e-05
5.49087e-05
5.03862e-05
4.60641e-05
4.21007e-05
3.85052e-05
3.52761e-05
3.24506e-05
2.98758e-05
2.75278e-05
2.5394e-05
2.41316e-05
2.39807e-05
2.58358e-05
2.92031e-05
3.50358e-05
4.10095e-05
5.18972e-05
4.29995e-05
5.59848e-05
6.82298e-05
6.17726e-05
0.000114687
0.000149565
9.44829e-05
3.1816e-05
6.62949e-06
8.19801e-07
5.27735e-08
2.99571e-08
3.3838e-08
3.0992e-08
2.8327e-08
2.84523e-08
2.81678e-08
2.76942e-08
2.72077e-08
2.6047e-08
2.62996e-08
2.58943e-08
2.63367e-08
2.54918e-08
2.60371e-08
2.70952e-08
2.88124e-08
2.87357e-08
2.7093e-08
2.60869e-08
2.54003e-08
2.64031e-08
2.56842e-08
2.62087e-08
2.61018e-08
2.71201e-08
2.77788e-08
2.80007e-08
2.86028e-08
2.83829e-08
2.96745e-08
3.14459e-08
3.15887e-08
3.48294e-08
3.00026e-08
2.20193e-08
8.41417e-09
1.07814e-06
9.17366e-06
2.8193e-05
4.47843e-05
4.86209e-05
5.00418e-05
5.16896e-05
5.15549e-05
5.15563e-05
5.13777e-05
5.11387e-05
5.11289e-05
5.09327e-05
5.10828e-05
5.09232e-05
5.1114e-05
5.10083e-05
5.12003e-05
5.11514e-05
5.13112e-05
5.13037e-05
5.14138e-05
5.14457e-05
5.15224e-05
5.15553e-05
5.16246e-05
5.16708e-05
5.16971e-05
5.17772e-05
5.17859e-05
5.18204e-05
5.18404e-05
5.18424e-05
5.18171e-05
5.18793e-05
5.18408e-05
5.18114e-05
5.1734e-05
5.17737e-05
5.16751e-05
5.15999e-05
5.15054e-05
5.14937e-05
5.13307e-05
5.12434e-05
5.10902e-05
5.09799e-05
5.07715e-05
5.06245e-05
5.04139e-05
5.02463e-05
4.99873e-05
4.97877e-05
4.94987e-05
4.92619e-05
4.89362e-05
4.86544e-05
4.8284e-05
4.79448e-05
4.75185e-05
4.71268e-05
4.66416e-05
4.61841e-05
4.56511e-05
4.51046e-05
4.45182e-05
4.39274e-05
4.32757e-05
4.26227e-05
4.1884e-05
4.11635e-05
4.03459e-05
3.95251e-05
3.86553e-05
3.77338e-05
3.67397e-05
3.5738e-05
3.46279e-05
3.35384e-05
3.23861e-05
3.12209e-05
3.00505e-05
2.8846e-05
2.74599e-05
2.60991e-05
2.4925e-05
2.38061e-05
2.24572e-05
2.11333e-05
1.97389e-05
1.84614e-05
1.71279e-05
1.58743e-05
1.45764e-05
1.335e-05
1.20707e-05
1.0902e-05
9.66798e-06
8.54521e-06
7.26935e-06
6.2331e-06
5.08988e-06
4.28729e-06
3.2448e-06
2.77328e-06
1.90149e-06
1.52183e-06
7.53357e-07
6.49913e-07
2.19989e-07
2.35158e-07
6.26795e-08
1.12729e-07
2.703e-08
8.61182e-08
1.76988e-08
7.89266e-08
1.22119e-08
1.00736e-07
1.22673e-08
1.08053e-07
1.84339e-08
8.446e-08
2.59439e-08
7.28643e-08
2.67325e-08
7.46284e-08
2.16931e-08
7.50428e-08
1.96432e-08
7.30454e-08
2.49773e-08
6.7167e-08
3.55229e-08
6.76474e-08
4.6457e-08
6.85237e-08
4.38966e-08
6.43701e-08
4.32471e-08
7.64895e-08
3.95481e-08
6.462e-08
3.37383e-08
7.81788e-08
4.58241e-08
8.43219e-08
2.83329e-08
5.58708e-08
2.10255e-08
7.43064e-08
3.21396e-08
1.04017e-07
3.77383e-08
7.68062e-08
3.65184e-08
8.79905e-08
1.31499e-07
1.23425e-07
1.04376e-07
2.1637e-08
2.89167e-08
4.15337e-08
7.66228e-08
3.22283e-08
1.27828e-08
2.20543e-07
1.58315e-08
5.58161e-08
7.70639e-09
2.28208e-08
5.95659e-09
1.72856e-08
7.78894e-09
1.66913e-08
1.05965e-08
1.3696e-08
1.25652e-08
8.41821e-09
1.52399e-08
4.90818e-09
1.74172e-08
2.44563e-09
1.93567e-08
9.90745e-10
2.19336e-08
7.58303e-10
2.94302e-08
8.17211e-10
4.26138e-08
6.44383e-10
6.94168e-08
4.5995e-10
9.76643e-08
3.2381e-10
7.53348e-08
2.51248e-10
6.8103e-08
1.41854e-10
9.99854e-08
5.63169e-12
1.00291e-07
1.25589e-10
1.01277e-07
3.06045e-10
1.46741e-07
1.82438e-09
3.14829e-07
5.8627e-12
9.06357e-07
2.09432e-07
1.44823e-06
8.2329e-07
2.10709e-06
2.05762e-06
3.22927e-06
3.69693e-06
4.69915e-06
5.35499e-06
6.50738e-06
7.09092e-06
8.67831e-06
9.02825e-06