/*--------------------------------*- C++ -*----------------------------------*\
| =========                 |                                                 |
| \\      /  F ield         | OpenFOAM: The Open Source CFD Toolbox           |
|  \\    /   O peration     | Version:  v2006                                 |
|   \\  /    A nd           | Website:  www.openfoam.com                      |
|    \\/     M anipulation  |                                                 |
\*---------------------------------------------------------------------------*/
FoamFile
{
    version     2.0;
    format      ascii;
    class       volScalarField;
    location    "200";
    object      ducSensor;
}
// * * * * * * * * * * * * * * * * * * * * * * * * * * * * * * * * * * * * * //

dimensions      [0 0 0 0 0 0 0];


internalField   nonuniform List<scalar> 
93840
(
0.031383
0.0115969
0
0
0
0
0
0
0.0145084
0
0
0.0360463
0
0
0.0472641
0.0132941
0
0
0
0
0
0
0.00321746
0.0185484
0.0358782
0
0
0
0
0
0
0.0235724
0.000796562
0
0
0
0
0
0
0
0
0
0
0
0
0
0
0
0
0
0
0
0
0
0
0.000190372
0
0
0
0
0
0
0
0
0
3.55157e-05
0.00010736
8.71913e-05
0
9.66447e-05
0
0
0
0.000141723
0
0.000123933
0.000157155
0.000185002
0.000190541
0.000178535
0.000145039
0.000187163
0.000232542
0.000246765
0.000230253
0.000239541
0.000251018
0.000235337
0.000238727
0.000286982
0.000331516
0.000338316
0.000350366
0.000369639
0.000398806
0.000412077
0.000403078
0.000397311
0.000403282
0.000408742
0.000403762
0.000406161
0.000578461
0.00074301
0.000493731
0.00023865
0.000387363
0.0005856
0.000591774
0.000568143
0.000533586
0.000499544
0.000533642
0.00053955
0.000500222
0.000442554
0.000468298
0.000473719
0.000412806
0.000335247
0.000206613
0.000119532
0.000154344
0.000139904
0
0
0
0
0
0
0
0
0
0
0
0
0
0
0
0
0
0
0
0
0
0
0
0
0
0
0
0
0
0
0
0
0
0
0
0
0
0
0
0
0
0
0
0
0
0
0
0
0
0
0
0
0
0
0
0
0
0
0
0
0
0
0
0
0
0
0
0
0
0
0
0
0
0
0
0
0
0
0.000113077
0.000490475
0.000614379
0.000330441
0.000145842
0.000386184
0.000434271
0
0
0
0
0
0.000192428
8.14473e-05
0
0
0
0
0
0
4.11102e-05
0
0
3.36918e-05
1.28717e-05
3.5413e-05
0.000135955
0
0
0
0
0
0
0
0
0
0
0
0
0
0
0
0
0
0
0
2.97794e-05
0
0
0
0
0
0
0
0
0
0
0.00223067
0.00846574
0.0126569
0.0177458
0.0358427
0.00201203
0
0
0
0
0
0
0
0
0
0
0
0
0
0
0
0
0
0
0
0
0
0
0
0
0
0.000300256
0.000839996
0.000950157
0.000422307
0
0
0
0
0
0
0
0
0
0
0
0
2.79992e-05
0
0
0
0.000108925
0
0.000106484
0
0.000353295
0
0.00031099
0
0.000705139
0.000608164
0.000752621
0
0.000354787
0
0.000623219
0.00083414
0
0
0
0
0
0
0
0
0.23593
0.0251505
0
0
0
0
0
0
0
0.0181267
0.0248731
0
0
0
0
0.0299409
0.00985721
0
0.0993711
0
0
0
0
0
0
0
0
0
0
0
0.0173434
0
0.0298728
0
0
0.0330581
0.0352916
0
0.0288175
0
0
0
0
0
0
0.00603715
0
0
0.0357838
0.0151872
0
0
0
0.0125839
0.000845629
0.01273
0.0372153
0.053945
0.0455953
0.114746
0.246312
0.36188
0.684945
0
0.00925166
0
0
0
0
0
0
0
0
0
0
0
0
0
0
0
0
0
0
0
0
0
0
0
0
0.00471581
0
0
0
0.0013235
0
0.00233638
0.00275196
0
0
0.00227328
0.00293216
0.00187973
0.000475141
0.00153748
0
2.24675e-05
0.000575734
0.00186094
0.000171212
0.00104205
0.00132693
0.00151613
0.00118446
0.00132992
0.00100078
0.00128754
0.00140952
0.00132595
0.00127314
0.00133107
0.00145643
0.00139178
0.00135462
0.00152361
0.001597
0.0016898
0.00176522
0.0018966
0.00209548
0.00220158
0.00218954
0.00213088
0.00209137
0.00207005
0.00204309
0.00208773
0.00278524
0.00367572
0.00289331
0.00175432
0.00233788
0.0031192
0.00319517
0.00305313
0.00282261
0.00253203
0.00267064
0.00277305
0.00247665
0.0022182
0.00240254
0.00238125
0.00209118
0.00137612
0.000587447
0
0
0
0
0
0
0
0
0
0
0
0
0
0
0
0
0
0
0
0
0
0
0
0
0
0
0
0
0
0
0
0
0
0
0
0
0
0
0
0
0
0
0
0
0
0
0
0
0
0
0
0
0
0
0.122528
0.162183
0.227523
0.107194
0.503472
0.155025
0.192095
0.385786
0.178067
0
0
0
0
0
0
0
0
0
0
0
0
0
0
0
0
0
0
0
0
0
0
0
0
0
0
0
0
0
0
0
0
0
0
0
0
0
0
0
0
0
0
0
0
0
0
0
0
0
0
0
0
0
0
0
0
0
0
0
0
0
0
0
0
0.000605069
0
0
0
0
0
0
0
0
0
0.00122599
0.0220982
0.0430755
0.0887932
0.0108019
0
0
0
0
0
0
0
0
0
0
0
0.000446622
0
0
0
0
0
0
0
0
0
0
0
0
0
0
0
0
0
0
0
0
0
0
0
0
0
0
0
0
0
0
0
0
0
0
0
0
0
0
0
0
0
0
0
0
0
0
0
0
0
0
0.00163737
0.0117606
0
0
0.0257906
0.0547316
0.00211672
0.262555
0
0.581224
0
0.118374
0.0285052
0.0415157
0.0220613
0.0299931
0.0148055
0.00587132
0.00986282
0.0623558
0.0394821
0.021812
0.0127532
0
0.0465578
0
0
0.195271
0
0
0
0
0.0023079
0
0
0
0.0114622
0.00196736
0.004877
0
0.00744221
0.0158171
0
0.0456191
0.0222409
0.0412285
0.183395
0
0.0393862
0.0402181
0
0
0.0237008
0.000975671
0
0
0
0
0.0253597
0
0.0348289
0
0
0
0
0.00557241
0.0307255
0.0207619
0
0
0.0553106
0.0413663
0
0
0.401293
0
0
0
0
0
0
0
0
0
0
0
0
0
0
0
0
0
0
0
0
0
0
0
0.00393962
0
0
0
0
0
0
0
0
0
0
0.00254933
0.000902398
0
0.000152104
0
0.000382999
0.000613176
0.00135674
0.00100452
0.00167578
0.00173711
0.00259918
0.00282052
0.00256899
0.00215734
0.00254483
0.00306029
0.00322792
0.00315897
0.00321226
0.00341566
0.00320427
0.00321369
0.0037493
0.00418522
0.00428512
0.00440429
0.00463131
0.00502319
0.00523202
0.0051502
0.00508094
0.00510826
0.0051097
0.00498218
0.00494153
0.00690157
0.00918893
0.00653588
0.00308837
0.00480898
0.00704107
0.00731732
0.00705831
0.00671178
0.00628969
0.00673244
0.00708064
0.00659715
0.00625874
0.00670423
0.00653842
0.00612654
0.00480933
0.00426771
0.00236387
0.00120541
0.00188614
0
0
0
0
0
0
0
0
0
0
0
0
0
0
0
0
0
0
0
0
0
0
0
0
0
0
0
0
0
0
0
0
0
0
0
0
0
0
0
0
0
0
0
0
0
0
0
0
0
0
0
0
0
0
0
0.384953
0
0
0
0
0
0
0
0
0
0
0
0
0
0
0
0
0
0
0
0
0
0.0675113
0.0355688
0.0408145
0.0294395
0.0146504
0.0205561
0.0175852
0.0109136
0
0
0
0
0
0
0
0
0
0
0
0
0
0
0
0
0
0
0
0.000619419
0
0
0
0
0
0
0
0
0
0
0
0
0
0
0
0
0
0
0
0.000581776
0
0
0
0
0
0
0
0
0
0
0.0579229
0.0976071
0.13288
0.0664586
0.0121512
0.00526882
0.00179696
0
0
0
0
0
0
0
0
0
0
0
0
0
0
0
0
0
0
0
0
0
0
0
0
0.000493027
0.00111645
0.00105145
0.000341532
0
0
0
0
0
0
0
0
0
0
0
0
0.000111505
0
7.2208e-05
9.0582e-05
0.000525152
0
0.000215365
0
0
0
0.000392745
0.000632237
0.00260266
0.00310982
0.00192018
0
0
0
0.00170539
0.00249568
0.00587825
0
0
0.0142166
0.00829333
0
0.0375536
0
0.012325
0.734568
0
0
0.0180399
0
0
0
0
0
0.00844812
0
0
0
0
0.0315508
0
0
0.090299
0
0
0
0
0
0
0
0
0
0.0138028
0.026673
0.0426318
0.0519518
0.0492271
0.00902017
0.00229944
0.0367953
0
0
0
0
0
0.0157595
0
0
0
0
0
0
0
0.0755032
0
0
0.0157044
0
0
0.000618326
0.0211807
0.0302499
0.0258126
0.0127085
0.00513974
0.0199215
0.0703934
0
0
0
0
0
0
0
0
0
0
0
0
0
0
0
0
0
0
0
0
0
0
0
0
0
0
0.00374527
0.00397534
0
0
0
0.000716871
0
0
0
0
0
0.00469913
0.000392216
0.00128128
0
0
0.00031167
0.00178674
0.00159948
0.00232453
0.00158056
0.00126227
0.00282284
0.00303056
0.00290704
0.00252188
0.00272266
0.00330111
0.0033713
0.0033107
0.00338956
0.00359102
0.0033925
0.00337755
0.00389256
0.00431464
0.00445057
0.00459403
0.00486165
0.00529278
0.00551769
0.00544037
0.00534257
0.00530251
0.00530919
0.00520235
0.00522098
0.00729903
0.00969631
0.00694241
0.00342867
0.00520355
0.00757317
0.00790074
0.00769065
0.007309
0.00683234
0.00740698
0.00782105
0.00734415
0.00712552
0.00768977
0.00745606
0.00673372
0.0058498
0.00536125
0.00153913
0.000486029
0
0
0
0
0
0
0
0
0
0
0
0
0
0
0
0
0
0
0
0
0
0
0
0
0
0
0
0
0
0
0
0
0
0
0
0
0
0
0
0
0
0
0
0
0
0
0
0
0
0
0
0
0
0
0
0
0
0.057995
0.0292101
0
0
0
0
0
0
0
0
0
0
0
0
0
0
0
0
0
0
0
0
0.382764
0.325435
0.726458
0.287413
0.340692
0.239441
0.140084
0.0910266
0
0
0
0
0.002568
0
0
0
0
0
0
0
0
0
0
0
0
0
3.51546e-05
0
0
0
0
0
0
0
0
0
0
0
0
0
0
0
0
0
0
0
0.000120647
0
0
0
0
0
0
0
0
0
0
0.0651918
0.167252
0.164822
0.0934601
0.00910531
0.00305777
0.00204931
0.0012658
0.000763269
0.000681567
0.00034331
0.000578858
0.000563776
0.000639191
0.000706565
0.000692818
0.000452316
0.000162232
0
0
0
0
0
0
0
0
0
0
0
0
0
0
0
0
0
0
0
0
0
0
0
0
0
0
0
0
0
0
0
0
0
0
0
0
0
0
0
0
0
0
0.000631663
0.000385486
0
0
0
0
0.00336002
0.00309047
0
0
0.00327634
0.000376606
0.00358812
0.00864058
0
0
0
0.401284
0
0.0626349
0.0117033
0.0101894
0.0173716
0
0
0
0.00300035
0
0
0
0.0327316
0
0
0.0178841
0
0
0
0
0.0177647
0
0
0.00118969
0
0.00944167
0.00828889
0
0.00187662
0.038709
0
0.013178
0.0348981
0.0203096
0
0.0243803
0
0.00181647
0
0
0
0.0257653
0.0404513
0
0
0
0.056993
0
0
0.0171019
0
0
0
0.0235714
0.0331474
0.0307898
0.00536355
0
0
0.0111398
0
0
0.0208557
0
0
0
0
0
0
0
0
0
0
0
0
0
0
0
0
0
0
0
0
0
0
0
0.00450774
0.00832613
0
0
0.000638102
0.00157187
0
0
0.0016193
0
0
0.00375117
0.00182713
0.00128777
0
8.52823e-05
0.00149808
0.00126016
0.00151261
0.00338633
0.000997073
0.000691373
0.00335364
0.00360458
0.00324917
0.00285247
0.00303643
0.00364202
0.00380568
0.00369056
0.00381446
0.0040098
0.00381807
0.00380572
0.00438521
0.00490803
0.00504161
0.00523184
0.00555515
0.00604086
0.00629702
0.00620957
0.00610559
0.00610601
0.00609958
0.00601753
0.00609467
0.00859559
0.0113386
0.00799763
0.00397581
0.0061855
0.00912796
0.00954742
0.00942175
0.00903352
0.0086308
0.00953965
0.0102072
0.0100228
0.00955416
0.010512
0.0102069
0.00908181
0.00825636
0.00808791
0.00260725
0
0
0.00310252
0
0
0
0
0
0
0
0
0
0
0
0
0
0
0
0
0
0
0
0
0
0
0
0
0
0
0
0
0
0
0
0
0
0
0
0
0
0
0
0
0
0
0
0
0
0
0
0
0
0
0
0
0
0
0.453017
0.0518018
0.23381
0
0
0
0
0
0
0
0
0
0
0
0
0
0
0
0
0
0
0
0
0
0.511198
0.393935
0.587897
0.65405
0.5632
0.23022
0.341874
0
0.0615559
0
0
0.180164
0
0
0
0.0189947
0
0
0
0.00630672
0
0
0
0
0
0
0
0
0
0
0
0
0
0
0
0
0
0
0
0
0
0
0
0
0
0
0
0
0
0
0
0
0
0
0
0
0.0574187
0.20918
0.197219
0.104235
0.0167115
0.00490018
0.00393936
0.00312868
0.00259442
0.00234022
0.00194278
0.00207602
0.0019754
0.00190492
0.00192539
0.00180924
0.00148684
0.00107154
0.000428565
0.000203006
0
0
0
0
0
0
0
5.57686e-05
3.89379e-05
4.41191e-05
8.48316e-05
0.000128545
0
0
0
0
0
0
0
0
0
0
0
0
0
0
0
0
0
0
0
0
0
0
0
0
0
0
0
0
0.000200014
0.000184258
0
0
0
0
0.00499904
0.00571623
0
0
0
0
0.0122872
0.000104061
0
0
0.0122917
0.00854634
0.238453
0
0.13475
0.0198675
0.0327356
0.0086067
0
0
0
0
0
0
0.24939
0
0.0524705
0
0
0
0
0.0529181
0
0
0
0
0
0
0.0228704
0.0135323
0
0.0435178
0
0.0408741
0.0294986
0.0131008
0.0311641
0.0372652
0
0.0111969
0.0238549
0
0
0
0
0.129061
0
0.0564256
0
0.0209806
0
0
0
0
0
0.0239111
0.0279966
0.0238466
0.0142588
0.00356955
0.000505792
0.0336404
0
0
0
0
0
0
0
0
0
0
0
0
0
0
0
0
0
0
0
0
0
0
0
0
0
0
0.000328763
0.0133084
0
0
0.000335842
0.00471512
0
0
0.00301579
0
0
0.00475665
0.000336575
0.00183311
0
0
0.00309458
0.00151443
0.00103371
0.00402419
0.00213587
0.000119651
0.00241313
0.00394456
0.00378053
0.00328777
0.00314173
0.00391928
0.00405586
0.00410944
0.0041832
0.00443536
0.00424426
0.00425438
0.0048814
0.00538952
0.00556473
0.00581291
0.00618961
0.00677717
0.00710325
0.00704547
0.00697454
0.00691216
0.00695587
0.00688276
0.00702402
0.00994574
0.013205
0.00943207
0.00482065
0.0075057
0.0109336
0.0116762
0.0117253
0.0114691
0.0111552
0.0125638
0.0137053
0.0135108
0.0137636
0.0152151
0.0149727
0.0138865
0.0120615
0.0115592
0.0075043
0.00243812
0.0118487
0
0
0
0
0
0
0
0
0
0
0
0
0
0
0
0
0
0
0
0
0
0
0
0
0
0
0
0
0
0
0
0
0
0
0
0
0
0
0
0
0
0
0
0
0
0
0
0
0
0
0
0
0
0
0
0
0.202939
0.795634
0
0
0
0
0
0
0
0
0
0
0
0
0
0
0
0
0
0
0
0
0
0
0.583159
0.582478
0.28994
0.624406
0.498813
0.0306242
0.162684
0
0.442141
0
0
0.379445
0.269902
0
0
0
0
0
0
0
0
0.00490171
0.00680889
0.0143763
0.00841499
0
0
0
0
0
0
0
0
0
0
0
7.85368e-05
0
0
0
0
0
0
0
0
0
0
0
0
0
0
0
0
0
0
0.0690991
0.259014
0.259615
0.135739
0.0251033
0.00584031
0.00518208
0.00468843
0.00423023
0.00386897
0.00347519
0.00354205
0.00339287
0.00317945
0.00314409
0.0029241
0.00253899
0.00200683
0.00126468
0.000937219
0.000588313
0.000535672
0.000364538
0.000470118
0.000395012
0.000526637
0.000466834
0.000559939
0.000513055
0.000524773
0.000489749
0.000492011
0.00034117
0.000177861
0
0
0
0
0
0
0
0
0
0
0
0
0
0
0
0
0
0
0
0
0
0
0
0
0
0
0
0
0
0
0
0
0.00542893
0.00535788
0.00402358
0.00250382
0
0
0
0.00585697
0.000554633
0
0
0
0
0.0980677
0
0
0.0229064
0.021364
0
0
0
0
0
0
0
0
0.0903438
0.0398965
0
0
0.011736
0
0
0
0
0
0.0128503
0.0142756
0
0
0
0.0429568
0
0
0.0358978
0
0.01416
0.0192661
0.00331363
0
0
0
0
0
0
0
0
0.0315935
0.00398154
0
0
0
0.00533658
0
0.0116386
0.0308184
0.0290491
0.0261536
0.00772457
0
0
0
0.0208256
0
0
0
0
0
0
0
0
0
0
0
0
0
0
0
0
0
0
0
0
0
0
0
0
0
0
0.00832096
0
0
0.00533056
0
0
0
0.0043269
0
0
0.0019518
0.00332232
0.000657817
0
0
0.00346947
0.00103207
0.00253302
0.00442737
0.000730981
0
0.00304602
0.0040821
0.00395889
0.00355186
0.00330051
0.00413338
0.00433801
0.00436007
0.00450965
0.00473276
0.00458733
0.00461353
0.00528101
0.00592868
0.00609767
0.00641401
0.0068656
0.00752771
0.00792226
0.00789559
0.00782536
0.00786201
0.00794096
0.00793737
0.00823029
0.011731
0.0154646
0.0110855
0.00595792
0.00937215
0.0137482
0.0148494
0.0153258
0.0153124
0.0154995
0.0179141
0.0200076
0.0208764
0.0217034
0.0254997
0.0273066
0.0256653
0.0254874
0.0199702
0.0111053
0.000733357
0
0.0166417
0
0
0
0
0
0
0
0
0
0
0
0
0
0
0
0
0
0
0
0
0
0
0
0
0
0
0
0
0
0
0
0
0
0
0
0
0
0
0
0
0
0
0
0
0
0
0
0
0
0
0
0
0
0
0.941163
0
0
0
0
0
0
0
0
0
0
0
0
0
0
0
0
0
0
0
0
0
0.188214
0.131934
0
0
0.389472
0.380663
0.490094
0.106178
0.0548936
0.0720687
0
0
0.353825
0
0.0324988
0
0.241028
0
0
0
0
0
0.123139
0
0.101148
0
0.26414
0.082841
0.00635
0
0
0
0
0
0
0
0
0
0
0
0
0
0
0
0
0
0
0
0
0
0
0
0
0
0
0
0
0
0.0617182
0.305163
0.310089
0.161086
0.0322307
0.00771502
0.00663981
0.00613831
0.00578929
0.00533777
0.00494378
0.00494066
0.00474773
0.00440947
0.00433375
0.0040204
0.00358389
0.00295948
0.00212946
0.00170092
0.00129533
0.00117085
0.000975439
0.00102905
0.000939861
0.00103641
0.000961877
0.00104577
0.000984783
0.00100002
0.00087828
0.000804151
0.000678406
0.000543927
0.000399666
0.000346532
0.00021434
0.00016594
0
0
0
0
0
0
0
0.00029875
0.000216887
0.000392026
4.49759e-05
1.62949e-05
0.000111711
0.000244908
0
0
0
0
0
0
0
0
4.85427e-05
0
0
0
0
0
0.00299532
5.81417e-05
0.00271806
0
0
0
0
0
0.0154191
0.00259981
0
0
0
0.0208998
0
0.333476
0.133639
0.0509783
0.00349322
0
0
0
0
0
0
0
0
0.0981167
0
0
0
0
0
0
0
0
0
0.00228591
0
0.00381547
0.0185445
0.0436809
0
0
0.0225122
0.103855
0.0463458
0
0
0
0
0
0
0
0.0967256
0
0.0953019
0
0.0845025
0
0.0728749
0
0
0.170714
0.064936
0.122724
0
0.0228758
0.0226884
0.00575122
0.00714242
0.00398059
0
0
0
0
0
0
0
0
0
0
0
0
0
0
0
0
0
0
0
0
0
0
0
0.00169515
0
0
0
0.00414831
0
0
0.00344349
0
0
0
0.00227967
0
0
0.0011514
0.00318872
0
0
0
0.00601733
0
0.00301998
0.0029534
0.00216187
0.000182449
0.0018692
0.00470789
0.00436164
0.00379921
0.00339913
0.00427562
0.00463408
0.00474508
0.00490991
0.00517311
0.00503612
0.00510354
0.00580813
0.00645272
0.00672988
0.00711179
0.00769919
0.0085227
0.00905059
0.0091033
0.00913194
0.00915609
0.00931444
0.00941559
0.00991881
0.0142687
0.0190897
0.014052
0.00806057
0.0126581
0.0183708
0.0205772
0.0222184
0.0232279
0.0249518
0.0306461
0.037384
0.0410431
0.048756
0.0674376
0.058032
0.0908703
0.0579861
0.130393
0
0.0855928
0
0.0277037
0
0
0
0
0
0
0
0
0
0
0
0
0
0
0
0
0
0
0
0
0
0
0
0
0
0
0
0
0
0
0
0
0
0
0
0
0
0
0
0
0
0
0
0
0
0
0
0
0
0
0
0
0.481943
0
0.216803
0.33139
0.899826
0
0
0
0
0
0
0
0
0
0
0
0
0
0
0
0
0
0
0
0
0
0.502168
0
0
0
0.38811
0.160567
0.0791413
0
0.618924
0
0
0.0427406
0.0322751
0
0.120181
0.00377925
0
0
0
0.0517056
0
0
0.194619
0.0810614
0.240079
0.145906
0.194702
0
0
0
0
0
0
0
0
0
0.023287
0
0
0
0
0
0
0
0
0
0
0
0
0
0
0
0
0
0
0
0.0668695
0.362819
0.389355
0.199071
0.0457616
0.00939901
0.00741661
0.0072434
0.00706555
0.00658698
0.00626939
0.00623978
0.00604134
0.00559451
0.00547905
0.00507948
0.00461302
0.0039267
0.00301984
0.00248628
0.00201303
0.00181624
0.00157953
0.00158646
0.0014781
0.00154243
0.00145473
0.00152413
0.00144961
0.00145684
0.0012719
0.00113029
0.00102439
0.000909403
0.000777637
0.000747023
0.000662453
0.000621973
0.000344221
0.000232534
5.94094e-05
3.60676e-05
0
0.000264106
0.000359073
0.000695483
0.000672481
0.000796961
0.000485185
0.000386583
0.000494797
0.000584948
0.00037271
0.000274887
6.54395e-05
0
0
0
0
0
0.00122728
0.00114638
0
0
0
0
0
0
0
0
0.00985141
0.00972093
0
0
0.017037
0.0122138
0
0
0.000783076
0
0
0.00806216
0.0303086
0.0495411
0.0133668
0
0
0
0
0
0
0
0
0.100497
0
0
0.0157577
0.0665717
0
0
0
0
0
0.00021227
0
0.0291119
0.0267954
0.031434
0
0.0482018
0.0177128
0.0072942
0
0.00171799
0
0
0.00646276
0.011307
0
0
0
0
0
0
0
0
0
0
0
0
0.0463197
0.0494531
0.0367691
0.0177777
0.0159453
0
0.00449909
0
0
0
0
0
0
0
0
0
0
0
0
0
0
0
0
0
0
0
0
0
0
0
0
0.00556147
0
0
0
0
0
0
0.00155401
0
0
0
0
0
0
0.000981528
0.0034652
0
0
0
0.00448283
0.00137577
0.00250276
0.00173037
0.00160303
0.00184848
0.00207101
0.00462406
0.00452008
0.00406208
0.00348563
0.00467744
0.00488522
0.00511084
0.00529549
0.00557664
0.00551146
0.00559956
0.00642034
0.0072591
0.00757361
0.00809195
0.00882637
0.00982138
0.0105417
0.0107372
0.010868
0.0111102
0.0114865
0.0118437
0.012845
0.0187302
0.0252926
0.019306
0.0123095
0.0197121
0.0309534
0.035194
0.040956
0.0476784
0.0585777
0.0888581
0.0978758
0.138887
0.175756
0.249977
0.204128
0.304067
0.194152
0.331636
0.11211
0.297719
0.0117242
0
0
0
0
0
0
0
0
0
0
0
0
0
0
0
0
0
0
0
0
0
0
0
0
0
0
0
0
0
0
0
0
0
0
0
0
0
0
0
0
0
0
0
0
0
0
0
0
0
0
0
0
0
0
0
0.870695
0.157382
0
0.373106
0
0
0
0
0
0
0
0
0
0
0
0
0
0
0
0
0
0
0.414419
0
0.147239
0.567789
0
0
0.014606
0.416385
0.0591994
0
0
0.408429
0
0
0
0.343899
0
0.091971
0
0
0
0.0453588
0.179751
0
0
0.148723
0.173264
0.0104376
0.0943899
0
0
0
0
0
0
0.401102
0
0
0.0273282
0.402205
0
0
0
0
0
0
0
0
0
0
0
0
0
0
0
0
0
0
0.0682887
0.432049
0.484477
0.248537
0.0656857
0.0120385
0.00869648
0.00816271
0.00822342
0.00774102
0.00747723
0.00741505
0.00722986
0.00669828
0.00656803
0.00609193
0.0056039
0.00487261
0.00392343
0.0033149
0.00278055
0.00250439
0.0022255
0.00216037
0.0020118
0.00203329
0.00192721
0.00198681
0.0019156
0.0019081
0.00163823
0.00141294
0.00133698
0.00127758
0.00118791
0.00118942
0.00112801
0.00110594
0.000837367
0.000722788
0.000539839
0.00049844
0.000437915
0.000669185
0.00075316
0.00108012
0.00106642
0.00119666
0.000894506
0.000769735
0.00085272
0.000931483
0.000775643
0.000658656
0.000509636
0.000184411
0
0
0
0
0.00112323
0.00187676
0.00104318
0
0
0
0
0.00703457
0
0
0.00773778
0.0111212
0
0
0.0107896
0.00502887
0
0.00523431
0
0
0
0.0119986
0.00731042
0.321768
0.0350415
0.00682065
0
0
0
0
0
0
0.043834
0
0
0
0
0
0.00315192
0
0
0
0
0
0
0.0157855
0
0.0297836
0
0
0.015122
0
0.0668835
0
0
0
0
0
0
0
0
0.0952706
0
0.0204609
0
0
0
0
0
0.0561646
0.205531
0.180697
5.56316e-05
0.0135441
0.0180053
0
0
0
0
0
0
0
0
0
0
0
0
0
0
0
0
0
0
0
0
0
0
0
0
0
0
0.0102568
0
0
0
0
0
0
0
0
0
0
0
0
0
0
0.00346562
0
0
0
0.00416657
0.000739994
0.00484111
0
0.000139478
0.00286313
0.00302822
0.00534461
0.00448344
0.00417172
0.00379063
0.00488354
0.00547464
0.00566758
0.00597579
0.00630527
0.00627597
0.00646025
0.00735685
0.0083103
0.00883967
0.00955214
0.0106077
0.0120464
0.0131604
0.0136533
0.0141162
0.0147776
0.0155547
0.0166075
0.0189554
0.0295105
0.0434723
0.0354995
0.0247261
0.049536
0.0625994
0.0997271
0.121212
0.155433
0.195868
0.276081
0.256577
0.330017
0.339954
0.39103
0.305333
0.335392
0.211312
0.291655
0.0232354
0
0
0
0.0342241
0
0
0
0
0
0
0
0
0
0
0
0
0
0
0
0
0
0
0
0
0
0
0
0
0
0
0
0
0
0
0
0
0
0
0
0
0
0
0
0
0
0
0
0
0
0
0
0
0
0
0
0.370237
0
0.440095
0.498482
0.910114
0
0
0
0
0
0
0
0
0
0
0
0
0
0
0
0
0
0
0
0
0
0
0
0.048453
0.666951
0
0.489749
0.0259353
0.481563
0
0.0556446
0.254461
0.186551
0
0.0244266
0
0
0
0
0
0
0
0.214848
0
0.149983
0.106271
0.177398
0.167887
0
0
0
0
0
0
0
0.212621
0
0
0.0338816
0.186747
0
0
0
0
0
0
0.245051
0
0
0
0
0
0
0
0
0
0
0.0804535
0.564566
0.587226
0.329344
0.102882
0.0100022
0.00914549
0.00878065
0.00905212
0.00862298
0.00852923
0.00847316
0.00833496
0.00774161
0.00759676
0.00704867
0.00655708
0.00580469
0.0048316
0.00416132
0.00357475
0.00322364
0.00289298
0.00275695
0.0025539
0.00252705
0.00240747
0.00244504
0.00237871
0.00235507
0.00201997
0.00171415
0.00165479
0.00163192
0.00156613
0.0015874
0.00156992
0.00156913
0.00134749
0.00121283
0.00102907
0.000952854
0.000885159
0.00105718
0.00115428
0.00142408
0.00147236
0.00157088
0.00131224
0.00111931
0.00120727
0.00125047
0.00118155
0.0010034
0.000932441
0.000588281
0.000182671
0
0
0
0.000340347
0.00169949
0.00234028
0.00123314
0
0
0
0.00461249
0.00206915
0
0.00180563
0.00321289
0.0020985
0
0
0
0
0.0104437
0
0.00766103
0
0.00202349
0.0034545
0.0614079
0.0543426
0.0177412
0
0
0
0
0
0
0.0832768
0
0
0.00388304
0
0
0.0331421
0
0
0
0.24458
0
0
0.0161826
0.0461576
0.0277581
0.0110688
0
0.00450749
0.000801802
0.0143262
0.00132192
0
0
0
0
0.01538
0
0
0
0.0458185
0.012478
0
0
0
0
0
0
0.0883746
0.229879
0
0.0106652
0.0138697
0
0
0
0
0
0
0
0
0
0
0
0
0
0
0
0
0
0
0
0
0
0
0
0
0
0
0.00357542
0
0
0
0
0
0
0
0
0
0
0
0
0
0.00485064
0
0
0
0
0.00148934
0.00452184
0.00140336
0
0.000740141
0.00432174
0.00385839
0.00579237
0.00504603
0.00427989
0.00417953
0.00563193
0.00612427
0.0064051
0.00684664
0.00726997
0.00740864
0.00767067
0.00890366
0.0103012
0.0110397
0.0122142
0.0138588
0.0159954
0.0180208
0.0195341
0.0211521
0.0234032
0.0266767
0.0316805
0.0401178
0.0727398
0.105343
0.0815515
0.0828794
0.14943
0.166523
0.238659
0.269428
0.30275
0.321867
0.369643
0.3408
0.359801
0.343607
0.403099
0.324497
0.307203
0.209759
0.195337
0
0.0420695
0
0.319156
0
0
0
0
0
0
0
0
0
0
0
0
0
0
0
0
0
0
0
0
0
0
0
0
0
0
0
0
0
0
0
0
0
0
0
0
0
0
0
0
0
0
0
0
0
0
0
0
0
0
0
0
0
0.389743
0.894044
0.0992343
0.00546341
0
0
0
0
0
0
0
0
0
0
0
0
0
0
0
0
0
0
0
0
0
0.0430306
0
0
0.498037
0.294643
0.180757
0
0.102484
0.198328
0
0
0.238264
0.0620589
0
0
0.0328401
0
0
0
0.10397
0
0.141375
0.0624129
0.0502119
0.0916787
0.195266
0.114235
0
0
0
0
0
0
0
0.278664
0.424207
0
0
0
0.0314057
0
0
0
0
0
0.355605
0
0
0
0
0
0
0
0
0
0
0.105083
0.759135
0.694298
0.439167
0.137812
0.0193252
0.00987492
0.0091591
0.00983875
0.00946226
0.00943211
0.00937749
0.00931487
0.00868438
0.00855565
0.00794748
0.00745194
0.0066781
0.00571685
0.00503069
0.00441144
0.00399981
0.00361876
0.00339031
0.00311315
0.0030174
0.00287775
0.00289694
0.00283449
0.00279132
0.00238024
0.00197489
0.00193253
0.00197886
0.00197224
0.00201694
0.00201193
0.00202777
0.00182441
0.00169926
0.00149574
0.00140366
0.00129721
0.0014319
0.00150813
0.00176543
0.0018237
0.00194213
0.00169686
0.00148575
0.00153145
0.00156348
0.00154794
0.0013627
0.00132494
0.000979755
0.000627925
0.000289971
0
0
3.69725e-05
0.00123204
0.00251626
0.00333861
0.000120361
0
0
0
0.00214424
0.00710397
0
0
0.00226946
0.0112432
0
0
0.00660608
0.0135372
0.00286929
0.0101965
0
0
0
0.0304881
0.470665
0.0531615
0
0
0
0
0
0
0
0.0148508
0
0
0
0.0246946
0
0
0.00207378
0
0
0
0
0
0
0.0214503
0
0.100878
0.00198548
0.0126553
0
0
0.0125626
0.0585019
0
0
0
0
0.00243191
0
0.0349164
0.0278498
0
0
0
0
0.150267
0
0.224649
0.228591
0.12125
0.0412348
0.00706527
0
0
0.0110477
0
0
0
0
0
0
0
0
0
0
0
0
0
0
0
0
0
0
0
0
0
0
0
0.00114691
0.0030567
0
0
0
0
0
0
0
0
0
0
0
0
0.00278338
0
0
0
0
0
0.010418
0.000789613
0
0
0.00555463
0.0062989
0.00563123
0.00541759
0.00484456
0.00483869
0.00659088
0.00739229
0.00800018
0.00852118
0.00931737
0.00970382
0.0103133
0.0120886
0.0140009
0.01561
0.0181263
0.0216395
0.0268893
0.0324539
0.0378449
0.0444886
0.054159
0.0640597
0.0793745
0.105675
0.197651
0.247732
0.165918
0.170981
0.243661
0.248988
0.314184
0.319549
0.326835
0.328695
0.367653
0.339103
0.357038
0.35423
0.373394
0.317182
0.279791
0.220267
0.143684
0
0.243393
0.0150684
0.16442
0
0
0
0
0
0
0
0
0
0
0
0
0
0
0
0
0
0
0
0
0
0
0
0
0
0
0
0
0
0
0
0
0
0
0
0
0
0
0
0
0
0
0
0
0
0
0
0
0
0
0
0
0.291154
0
0.589412
0.614682
0.852985
0.0541254
0
0
0
0
0
0
0
0
0
0
0
0
0
0
0
0
0
0
0
0
0
0
0
0.576221
0.0607305
0.00836578
0
0
0
0
0
0
0
0.154771
0
0.0566986
0.134312
0
0
0
0
0.198408
0.0833107
0.0481408
0.0515886
0.171722
0.100628
0
0
0
0
0
0
0
0
0.105713
0
0
0
0
0
0
0
0
0
0.255909
0
0
0
0
0
0
0
0
0
0
0.106681
0.987096
0.80008
0.565681
0.191748
0.0320782
0.0115944
0.00954933
0.0102696
0.00999904
0.0102251
0.0101678
0.0102139
0.00957234
0.00945293
0.00878371
0.00830102
0.00751774
0.00658072
0.00590065
0.00527403
0.00482144
0.00440003
0.00407606
0.00370367
0.00353489
0.00336459
0.00335701
0.00329882
0.00324232
0.00276758
0.00226299
0.00222206
0.00229931
0.00233913
0.00240266
0.00243335
0.00247295
0.00231725
0.00218469
0.00198464
0.00184763
0.0017264
0.00179097
0.00186118
0.0020615
0.00217663
0.00226721
0.00209255
0.00181732
0.00184443
0.00185018
0.00191315
0.00169029
0.00172211
0.001331
0.00104687
0.000637187
0.000358479
0
5.95652e-05
0.000513735
0.00218059
0.00312179
0.00205335
0.00199625
0
0
0
0.00691426
0
0
0.00372106
0.019772
0.00856837
0.0016447
0.00250541
0.00146051
0
0.0092531
0
0
0
0.0171175
0.0534316
0.0913123
0.00197585
0.00180334
0
0
0
0
0
0.133886
0
0
0.0283347
0
0
0
0
0
0
0.011773
0
0
0
0.030685
0.00389052
0
0.00163467
0
0
0.0366083
0
0
0
0
0
0
0.0175547
0
0.0570638
0.0674304
0
0
0
0
0.0805508
0
0.135788
0.188022
0
0
0
0
0
0
0
0
0
0
0
0
0
0
0
0
0
0
0
0
0
0
0
0
0
0
0
0
0
0
0.012073
0
0
0.00141289
0
0
0
0
0
0
0
0
0
0.00339447
0
0
0
0
0
0.00863065
0.00156544
0
0
0.0029483
0.00832828
0.00715466
0.00727656
0.00609776
0.00643467
0.00869104
0.00992431
0.0107306
0.0120842
0.0135753
0.0149802
0.0165923
0.0203938
0.0259085
0.0315923
0.039824
0.0508139
0.0665876
0.0852007
0.105708
0.124333
0.144112
0.15422
0.168178
0.19277
0.293134
0.300127
0.195442
0.199554
0.274144
0.269929
0.323505
0.328005
0.315889
0.327335
0.377668
0.34511
0.322114
0.311959
0.380941
0.362792
0.32583
0.195411
0.191658
0.0988644
0
0.0636406
0
0
0
0
0
0
0
0
0
0
0
0
0
0
0
0
0
0
0
0
0
0
0
0
0
0
0
0
0
0
0
0
0
0
0
0
0
0
0
0
0
0
0
0
0
0
0
0
0
0
0
0
0
0.414096
0.484453
0.825905
0.0523205
0
0.0592253
0
0
0
0
0
0
0
0
0
0
0
0
0
0
0
0
0
0
0
0
0
0
0
0
0.172322
0.210561
0.156325
0
0
0
0
0
0
0.0794384
0.0417782
0
0.0104623
0
0
0
0
0.159979
0.109954
0.107858
0.0706202
0.189172
0.10346
0
0
0
0
0
0
0.418253
0
0
0.294805
0.0299596
0
0
0.0759531
0
0
0
0
0.395634
0
0
0
0
0
0
0
0
0
0
0.444832
0.937596
0.880289
0.682344
0.267187
0.0487913
0.0130068
0.00986894
0.0109859
0.0107116
0.010861
0.0108216
0.0110107
0.0103722
0.0102836
0.00957413
0.00908989
0.00828344
0.00739052
0.00675255
0.00613841
0.00567836
0.00524878
0.00483029
0.00433958
0.00406389
0.00385184
0.00381759
0.00375544
0.00369853
0.00315415
0.00254064
0.00248479
0.00261249
0.00271871
0.00281208
0.00284643
0.00290335
0.00276613
0.00265958
0.00244156
0.00229135
0.00212698
0.00214846
0.00217478
0.0023704
0.0024732
0.00260173
0.00243861
0.00216874
0.00213502
0.00212705
0.00221953
0.00201942
0.00206149
0.00172966
0.00146064
0.00105687
0.000808725
0.000312322
0.000298935
0.000504694
0.00221806
0.0023162
0.00178676
0.00500943
0.00204486
0
0
0.00708536
0.00399058
0
0
0.00647391
0
0.00314843
0
0
0
0
0
0.00631805
0
0.0120166
0.0232962
0.609605
0.0170191
0.00475902
0
0
0
0
0.000105514
0
0
0
0.058041
0
0.0283682
0
0.00323511
0
0
0
0.00772368
0
0.0492288
0.034543
0
0.0213942
0
0
0.0452077
0.0308495
0
0.0267372
0
0.00200823
0
0
0
0
0.0214895
0.113913
0
0
0
0.0269111
0
0
0.103175
0.206242
0.0777813
0.315697
0
0
0
0
0
0
0
0
0
0
0
0
0
0
0
0
0
0
0
0
0
0
0
0
0
0
0
0
0.00211239
0
0
0.0141069
0
0
0
0
0
0
0
0
0
0
0
0.00108344
0
0
0
0.00982923
0
0.00280713
0
0.00310042
0.00978089
0.00870504
0.0108969
0.00977255
0.0101087
0.0144589
0.0173564
0.0207742
0.0240557
0.0298727
0.0342533
0.0428995
0.0537897
0.0724923
0.0865528
0.11616
0.143666
0.171814
0.18474
0.19774
0.195786
0.197986
0.191833
0.201306
0.222452
0.319135
0.319786
0.206773
0.204998
0.269808
0.271699
0.319345
0.317325
0.317652
0.335632
0.375433
0.336491
0.30898
0.303368
0.378513
0.276798
0.279754
0.21648
0.184306
0
0
0
0
0
0
0
0
0
0
0
0
0
0
0
0
0
0
0
0
0
0
0
0
0
0
0
0
0
0
0
0
0
0
0
0
0
0
0
0
0
0
0
0
0
0
0
0
0
0
0
0
0
0
0
0
0.251537
0.0737965
0.695388
0.640908
0.76304
0.01304
0.175376
0
0
0
0
0
0
0
0
0
0
0
0
0
0
0
0
0
0
0
0
0
0.40049
0
0
0
0.528724
0.0557144
0
0.0867379
0
0
0
0
0.00255573
0.0053486
0
0
0
0
0
0
0.105055
0.0822049
0.108522
0.134707
0.124385
0
0
0
0
0
0
0
0
0
0
0.237093
0
0
0
0
0
0
0
0.00790596
0
0
0
0
0
0
0
0
0
0
0
0.848751
0.953253
0.781533
0.37591
0.0978849
0.0105933
0.00986961
0.0111457
0.0112016
0.0115667
0.0114294
0.0117722
0.0111487
0.0110764
0.0103044
0.0098434
0.00902214
0.00817024
0.00759098
0.00701757
0.00657814
0.00615996
0.00566459
0.00504757
0.0046492
0.0043806
0.00431603
0.0042371
0.00418104
0.00359009
0.00287036
0.00277438
0.00291408
0.0030628
0.00317484
0.00324753
0.00330833
0.0032195
0.00311158
0.0029117
0.00271656
0.00255931
0.00248797
0.00251277
0.00262892
0.00278019
0.00288594
0.00278956
0.00248003
0.00242863
0.00234948
0.00253735
0.00229137
0.00240511
0.00205531
0.00191878
0.00138463
0.00125166
0.000658632
0.000384969
0.000331257
0.00212418
0.00152979
0.00186829
0.00406404
0.00386925
0.000589534
0.00121676
0.00393892
0.00483931
0
0
0
0
0.00598235
0.00330406
0.0117378
0
0.0032596
0
0.00382231
0
0.00147839
0.0150794
0.103573
0.03488
0.00905758
0
0
0
0
0
0.173746
0
0.00859805
0.0207005
0
0
0
0
0
0
0
0.0139456
0.00835522
0
0.036178
0
0.0421795
0.0167276
0.0075482
0
0
0
0
0
0
0.00656956
0
0
0.0178446
0
0.0910723
0
0
0.0072523
0
0
0.249765
0
0.196734
0.0675942
0.106917
0
0
0.0647237
0
0
0
0
0
0
0
0
0
0
0
0
0
0
0
0
0
0
0
0
0
0
0
0
0
0.0112645
0
0
0.00283848
0
0
0
0
0
0
0.00132535
0
0
0
0.00385999
0
0
0
0
0.00319915
0
0.00833292
0.00495774
0.00511766
0.0126868
0.0200962
0.0201271
0.0291283
0.0271307
0.0429916
0.0469132
0.0657293
0.0786671
0.0927796
0.108352
0.127114
0.147416
0.162272
0.175851
0.190084
0.20764
0.222818
0.230001
0.235257
0.22968
0.230113
0.219577
0.219903
0.235585
0.320018
0.310697
0.207395
0.212074
0.272706
0.276287
0.3209
0.316536
0.311586
0.309314
0.368817
0.367298
0.376455
0.347061
0.352223
0.29653
0.297397
0.252233
0.128571
0
0.105194
0
0
0
0
0.0369384
0
0
0
0
0
0
0
0
0
0
0
0
0
0
0
0
0
0
0
0
0
0
0
0
0
0
0
0
0
0
0
0
0
0
0
0
0
0
0
0
0
0
0
0
0
0
0
0
0.0415904
0.505263
0.387178
0.606721
0.0566325
0.575287
0
0
0
0
0
0
0
0
0
0
0
0
0
0
0
0
0
0
0
0
0
0
0
0
0.52289
0
0
0.0721105
0.198719
0
0
0.206441
0
0.0701779
0.0160006
0.188053
0
0
0
0
0
0
0
0.234235
0
0.0280884
0.111557
0.116998
0
0
0
0
0
0
0
0
0
0
0
0
0
0
0
0
0
0
0.0455183
0
0
0
0
0
0
0
0
0
0
0
0.830303
0.98293
0.84896
0.507712
0.151099
0.0217279
0.0100708
0.0126749
0.0124513
0.0122212
0.0120769
0.0125742
0.0119128
0.0118456
0.0110542
0.0105587
0.0096929
0.00888881
0.00837898
0.00785198
0.00746647
0.00711639
0.00658173
0.00583678