/*--------------------------------*- C++ -*----------------------------------*\
| =========                 |                                                 |
| \\      /  F ield         | OpenFOAM: The Open Source CFD Toolbox           |
|  \\    /   O peration     | Version:  v2006                                 |
|   \\  /    A nd           | Website:  www.openfoam.com                      |
|    \\/     M anipulation  |                                                 |
\*---------------------------------------------------------------------------*/
FoamFile
{
    version     2.0;
    format      ascii;
    class       volScalarField;
    location    "200";
    object      nut;
}
// * * * * * * * * * * * * * * * * * * * * * * * * * * * * * * * * * * * * * //

dimensions      [0 2 -1 0 0 0 0];


internalField   nonuniform List<scalar> 
93840
(
2.8559e-08
2.74007e-08
2.67001e-08
2.62734e-08
2.72264e-08
2.67226e-08
2.73441e-08
2.69399e-08
2.79087e-08
2.81208e-08
2.82776e-08
2.94333e-08
3.0731e-08
3.05698e-08
3.10106e-08
3.18618e-08
3.27345e-08
9.95983e-08
1.72481e-06
9.11278e-06
2.85835e-05
5.1018e-05
4.83081e-05
5.0037e-05
4.9793e-05
3.36401e-05
3.1326e-05
2.19858e-05
1.8822e-05
1.57187e-05
1.33149e-05
1.18927e-05
1.24971e-05
1.19624e-05
1.20489e-05
1.19503e-05
1.18284e-05
1.18349e-05
1.16793e-05
1.16879e-05
1.15657e-05
1.15617e-05
1.14618e-05
1.14433e-05
1.13516e-05
1.13182e-05
1.12322e-05
1.12028e-05
1.11295e-05
1.1089e-05
1.10208e-05
1.09872e-05
1.09058e-05
1.0848e-05
1.08117e-05
1.0827e-05
1.07779e-05
1.07371e-05
1.0647e-05
1.06126e-05
1.05855e-05
1.05467e-05
1.04887e-05
1.04908e-05
1.04668e-05
1.04531e-05
1.04426e-05
1.04595e-05
1.04456e-05
1.0453e-05
1.04561e-05
1.04641e-05
1.04777e-05
1.05077e-05
1.05218e-05
1.05552e-05
1.05838e-05
1.06192e-05
1.06664e-05
1.07127e-05
1.07514e-05
1.07976e-05
1.0846e-05
1.09164e-05
1.09865e-05
1.10531e-05
1.11295e-05
1.11997e-05
1.1272e-05
1.13501e-05
1.14571e-05
1.15717e-05
1.1685e-05
1.18081e-05
1.19348e-05
1.20759e-05
1.2216e-05
1.23601e-05
1.25106e-05
1.26775e-05
1.28475e-05
1.3013e-05
1.31858e-05
1.35155e-05
1.38423e-05
1.39278e-05
1.39973e-05
1.42483e-05
1.45197e-05
1.47876e-05
1.50535e-05
1.53205e-05
1.55819e-05
1.59006e-05
1.61883e-05
1.64782e-05
1.6738e-05
1.70473e-05
1.72911e-05
1.75482e-05
1.77365e-05
1.79737e-05
1.80819e-05
1.82594e-05
1.82433e-05
1.82528e-05
1.8302e-05
1.81485e-05
1.82099e-05
1.81271e-05
1.80149e-05
1.79544e-05
1.78272e-05
1.77999e-05
1.77027e-05
1.76382e-05
1.75103e-05
1.74572e-05
1.73662e-05
1.73244e-05
1.72666e-05
1.72032e-05
1.71155e-05
1.70482e-05
1.69886e-05
1.69255e-05
1.68722e-05
1.68074e-05
1.672e-05
1.66186e-05
1.65321e-05
1.64273e-05
1.63193e-05
1.61945e-05
1.60608e-05
1.5916e-05
1.57456e-05
1.55668e-05
1.53571e-05
1.51526e-05
1.49596e-05
1.4735e-05
1.44692e-05
1.41974e-05
1.39091e-05
1.3531e-05
1.30143e-05
1.22881e-05
1.13229e-05
1.04599e-05
1.03605e-05
9.47174e-06
4.96041e-06
1.08414e-08
3.93692e-06
6.24345e-06
2.21275e-06
1.44016e-09
3.48257e-08
1.3252e-08
3.00666e-08
5.59694e-08
6.58543e-07
4.11188e-07
1.43585e-08
1.13558e-10
2.52728e-06
4.96856e-06
8.9336e-08
2.36691e-06
1.75719e-05
1.54386e-05
5.61119e-06
1.22515e-05
2.25603e-05
2.80295e-05
3.02241e-05
3.09195e-05
3.11324e-05
3.13014e-05
3.11995e-05
3.10702e-05
3.08612e-05
3.07253e-05
3.05354e-05
3.03812e-05
3.01636e-05
2.99986e-05
2.97826e-05
2.96078e-05
2.94167e-05
2.92682e-05
2.90883e-05
2.89479e-05
2.87501e-05
2.85721e-05
2.83433e-05
2.81872e-05
2.79895e-05
2.78916e-05
2.77842e-05
2.77074e-05
2.75011e-05
2.73563e-05
2.71234e-05
2.69678e-05
2.67243e-05
2.6585e-05
2.63071e-05
2.61054e-05
2.59254e-05
2.59518e-05
2.58341e-05
2.58365e-05
2.5704e-05
2.55938e-05
2.54049e-05
2.52912e-05
2.51134e-05
2.50046e-05
2.48156e-05
2.46897e-05
2.44206e-05
2.41342e-05
2.36439e-05
2.2258e-05
1.94482e-05
1.77879e-05
1.75423e-05
1.79546e-05
1.77143e-05
1.73958e-05
1.72333e-05
1.7347e-05
1.74796e-05
1.75292e-05
1.75601e-05
1.75642e-05
1.77204e-05
1.80117e-05
1.82257e-05
1.83041e-05
1.83033e-05
1.82445e-05
1.81561e-05
1.8043e-05
1.79545e-05
1.78005e-05
1.74858e-05
1.71984e-05
1.71878e-05
1.71597e-05
1.68887e-05
1.65139e-05
1.62189e-05
1.59142e-05
1.55148e-05
1.49983e-05
1.44324e-05
1.40447e-05
1.37883e-05
1.35965e-05
1.35193e-05
1.33805e-05
1.33028e-05
1.30028e-05
1.27683e-05
1.26445e-05
1.26051e-05
1.29343e-05
1.23698e-05
1.1096e-05
1.03933e-05
9.98266e-06
1.02208e-05
1.07199e-05
1.11281e-05
1.13298e-05
1.14178e-05
1.14041e-05
1.13815e-05
1.12943e-05
1.12237e-05
1.1079e-05
1.09664e-05
1.07902e-05
1.06767e-05
1.04931e-05
1.03745e-05
1.01817e-05
1.00586e-05
9.85617e-06
9.74426e-06
9.54665e-06
9.44682e-06
9.23429e-06
9.10959e-06
8.8368e-06
8.64497e-06
8.30177e-06
8.05799e-06
7.70174e-06
7.48594e-06
7.17816e-06
7.03024e-06
6.75894e-06
6.66504e-06
6.40559e-06
6.37016e-06
6.11495e-06
6.18053e-06
5.87805e-06
6.20146e-06
5.70771e-06
6.55441e-06
5.22035e-06
8.41294e-06
6.79281e-06
1.21191e-05
1.41738e-05
2.25934e-05
3.27914e-05
3.10757e-05
4.93922e-05
4.79663e-05
4.8796e-05
5.89714e-05
3.48915e-05
1.16157e-05
2.28711e-06
1.38592e-07
3.48465e-08
3.06281e-08
2.98792e-08
2.83733e-08
2.97924e-08
2.94151e-08
2.83633e-08
2.81879e-08
2.7868e-08
2.69142e-08
2.7301e-08
2.68079e-08
2.71203e-08
2.63173e-08
2.66327e-08
2.74588e-08
2.84336e-08
2.84342e-08
2.75058e-08
2.65935e-08
2.62661e-08
2.71237e-08
2.67301e-08
2.7089e-08
2.71367e-08
2.77121e-08
2.80042e-08
2.83394e-08
2.89962e-08
2.93247e-08
2.93748e-08
2.90202e-08
2.97131e-08
3.38325e-08
7.76474e-08
1.08035e-06
6.4149e-06
2.18565e-05
4.33095e-05
4.74886e-05
5.20948e-05
5.24872e-05
4.0854e-05
3.88167e-05
3.08731e-05
2.65285e-05
2.22962e-05
1.97492e-05
1.76984e-05
1.70182e-05
1.70387e-05
1.70144e-05
1.68731e-05
1.69996e-05
1.68072e-05
1.70036e-05
1.67272e-05
1.69992e-05
1.66665e-05
1.69965e-05
1.66505e-05
1.6988e-05
1.66522e-05
1.69648e-05
1.66487e-05
1.69444e-05
1.66652e-05
1.69207e-05
1.66837e-05
1.69149e-05
1.66785e-05
1.6838e-05
1.66685e-05
1.68932e-05
1.67591e-05
1.69271e-05
1.67589e-05
1.69005e-05
1.68101e-05
1.69152e-05
1.68096e-05
1.69378e-05
1.68677e-05
1.69555e-05
1.69166e-05
1.70127e-05
1.69788e-05
1.70633e-05
1.70551e-05
1.71234e-05
1.71307e-05
1.72077e-05
1.72189e-05
1.72922e-05
1.73106e-05
1.73842e-05
1.74222e-05
1.74979e-05
1.75362e-05
1.76012e-05
1.7649e-05
1.77266e-05
1.7785e-05
1.78582e-05
1.79263e-05
1.8e-05
1.80569e-05
1.81254e-05
1.81997e-05
1.82731e-05
1.8346e-05
1.84159e-05
1.84832e-05
1.85526e-05
1.86137e-05
1.86674e-05
1.87244e-05
1.87767e-05
1.88251e-05
1.88406e-05
1.88803e-05
1.89642e-05
1.90256e-05
1.902e-05
1.90161e-05
1.90358e-05
1.90452e-05
1.90488e-05
1.90492e-05
1.90297e-05
1.90169e-05
1.89836e-05
1.89502e-05
1.88872e-05
1.8835e-05
1.87498e-05
1.86674e-05
1.85404e-05
1.84403e-05
1.82796e-05
1.81525e-05
1.79607e-05
1.78346e-05
1.7624e-05
1.74704e-05
1.72808e-05
1.70863e-05
1.69149e-05
1.67261e-05
1.6551e-05
1.63687e-05
1.61732e-05
1.5999e-05
1.58081e-05
1.56355e-05
1.54423e-05
1.52687e-05
1.50654e-05
1.48873e-05
1.46846e-05
1.45037e-05
1.42874e-05
1.40885e-05
1.38563e-05
1.36371e-05
1.33873e-05
1.31456e-05
1.28733e-05
1.26008e-05
1.22995e-05
1.199e-05
1.16413e-05
1.12495e-05
1.07831e-05
1.02786e-05
9.71736e-06
9.08993e-06
8.29669e-06
7.29332e-06
6.27382e-06
5.66899e-06
5.46176e-06
4.91526e-06
3.55748e-06
1.85621e-06
6.59856e-07
8.17341e-07
1.54418e-06
1.28639e-06
4.56538e-08
5.43828e-11
3.32462e-09
9.9184e-09
5.04661e-09
6.88493e-08
2.74946e-10
7.04695e-08
1.32777e-07
2.63415e-08
2.00752e-08
1.45487e-07
7.63393e-08
7.70511e-09
1.07469e-08
2.61481e-08
9.84683e-12
8.31347e-08
1.38373e-06
4.21419e-07
6.67897e-07
1.11023e-07
3.53688e-06
7.43562e-06
8.74347e-06
8.47616e-06
9.6847e-06
1.21477e-05
1.39899e-05
1.49978e-05
1.58832e-05
1.71246e-05
1.83465e-05
1.9338e-05
2.01157e-05
2.07749e-05
2.13518e-05
2.18717e-05
2.22659e-05
2.25937e-05
2.28424e-05
2.30916e-05
2.3284e-05
2.34855e-05
2.36383e-05
2.38186e-05
2.39382e-05
2.41068e-05
2.4211e-05
2.43956e-05
2.45006e-05
2.46995e-05
2.47789e-05
2.49809e-05
2.50195e-05
2.52319e-05
2.52232e-05
2.54538e-05
2.54033e-05
2.56088e-05
2.55764e-05
2.57883e-05
2.57504e-05
2.59843e-05
2.5965e-05
2.61732e-05
2.61909e-05
2.63646e-05
2.63198e-05
2.66491e-05
2.62285e-05
2.68926e-05
2.65504e-05
2.6144e-05
2.64344e-05
2.72251e-05
2.73251e-05
2.66302e-05
2.67314e-05
2.61903e-05
2.54692e-05
2.60776e-05
2.5673e-05
2.51858e-05
2.44428e-05
2.42315e-05
2.57972e-05
2.87523e-05
3.12725e-05
3.27587e-05
3.34877e-05
3.37606e-05
3.37852e-05
3.36734e-05
3.34267e-05
3.30291e-05
3.27544e-05
3.26395e-05
3.21541e-05
3.13981e-05
3.0839e-05
3.04511e-05
2.93844e-05
2.74033e-05
2.53777e-05
2.35435e-05
2.13974e-05
2.0103e-05
1.96787e-05
1.97682e-05
2.05544e-05
2.09069e-05
2.1671e-05
2.11187e-05
2.06651e-05
2.06489e-05
2.12482e-05
2.39197e-05
2.24504e-05
1.74711e-05
1.41636e-05
1.28408e-05
1.44086e-05
1.77818e-05
2.06016e-05
2.26395e-05
2.36307e-05
2.44849e-05
2.46955e-05
2.51283e-05
2.49534e-05
2.51832e-05
2.48079e-05
2.49606e-05
2.44465e-05
2.45343e-05
2.38967e-05
2.39552e-05
2.32766e-05
2.3355e-05
2.27104e-05
2.28265e-05
2.2181e-05
2.2246e-05
2.15283e-05
2.14311e-05
2.05672e-05
2.01849e-05
1.9114e-05
1.84744e-05
1.73773e-05
1.67961e-05
1.59361e-05
1.55943e-05
1.49513e-05
1.47415e-05
1.41935e-05
1.40923e-05
1.36056e-05
1.36996e-05
1.33573e-05
1.37773e-05
1.38931e-05
1.33629e-05
1.57438e-05
1.29769e-05
1.71259e-05
1.88881e-05
3.37444e-05
4.05114e-05
3.52381e-05
5.41451e-05
4.58193e-05
5.03185e-05
7.09135e-05
4.3009e-05
1.46396e-05
3.06462e-06
2.73881e-07
4.37515e-08
3.2262e-08
3.21058e-08
2.98422e-08
2.95726e-08
2.92715e-08
2.84412e-08
2.83008e-08
2.78678e-08
2.68402e-08
2.74965e-08
2.68004e-08
2.70986e-08
2.62336e-08
2.66114e-08
2.73555e-08
2.8439e-08
2.85199e-08
2.7391e-08
2.66247e-08
2.62825e-08
2.70011e-08
2.67479e-08
2.71278e-08
2.694e-08
2.76332e-08
2.81757e-08
2.82912e-08
2.90804e-08
3.00157e-08
3.11599e-08
3.21131e-08
2.92625e-08
3.16545e-08
4.50684e-08
3.52219e-07
3.87785e-06
1.52749e-05
3.55546e-05
4.55122e-05
5.26887e-05
5.38029e-05
4.59933e-05
4.52107e-05
3.9699e-05
3.68686e-05
3.37893e-05
3.1833e-05
3.04269e-05
2.90494e-05
2.93476e-05
2.90442e-05
2.88631e-05
2.89981e-05
2.87534e-05
2.89029e-05
2.87077e-05
2.88307e-05
2.8673e-05
2.87995e-05
2.86545e-05
2.87878e-05
2.86311e-05
2.87699e-05
2.86056e-05
2.87616e-05
2.85862e-05
2.87473e-05
2.85709e-05
2.87201e-05
2.85134e-05
2.8662e-05
2.85287e-05
2.87441e-05
2.86013e-05
2.87396e-05
2.85454e-05
2.86829e-05
2.85397e-05
2.8636e-05
2.84918e-05
2.86255e-05
2.84956e-05
2.85983e-05
2.85105e-05
2.86081e-05
2.85164e-05
2.86019e-05
2.85277e-05
2.85955e-05
2.85442e-05
2.86097e-05
2.85561e-05
2.86114e-05
2.85578e-05
2.86134e-05
2.85766e-05
2.86107e-05
2.85598e-05
2.85652e-05
2.85287e-05
2.85427e-05
2.84997e-05
2.8499e-05
2.84481e-05
2.84156e-05
2.83281e-05
2.8276e-05
2.82144e-05
2.81433e-05
2.80583e-05
2.79673e-05
2.78519e-05
2.77434e-05
2.75882e-05
2.74267e-05
2.72547e-05
2.70671e-05
2.68603e-05
2.66043e-05
2.63967e-05
2.62782e-05
2.60851e-05
2.57634e-05
2.54386e-05
2.51517e-05
2.48298e-05
2.45114e-05
2.41751e-05
2.3808e-05
2.34485e-05
2.30737e-05
2.26858e-05
2.22746e-05
2.1882e-05
2.14771e-05
2.10607e-05
2.06336e-05
2.02459e-05
1.984e-05
1.94477e-05
1.90626e-05
1.87081e-05
1.8284e-05
1.79485e-05
1.75086e-05
1.71706e-05
1.67751e-05
1.64163e-05
1.60344e-05
1.56492e-05
1.52523e-05
1.48745e-05
1.44706e-05
1.40662e-05
1.36478e-05
1.32354e-05
1.28e-05
1.23909e-05
1.19317e-05
1.14906e-05
1.09803e-05
1.04816e-05
9.91241e-06
9.34556e-06
8.69381e-06
8.02014e-06
7.27401e-06
6.54516e-06
5.80911e-06
5.19345e-06
4.63898e-06
4.04357e-06
3.22229e-06
2.39986e-06
1.9062e-06
1.69848e-06
1.18757e-06
4.2937e-07
1.314e-07
1.42708e-07
1.09144e-07
5.94558e-08
3.73332e-08
4.92768e-08
6.94902e-08
4.15024e-08
1.74756e-08
2.86728e-08
8.0369e-08
1.39605e-07
1.31687e-07
9.07375e-08
1.74735e-07
9.53612e-08
1.37092e-07
1.55289e-09
1.45556e-08
1.87236e-07
1.19361e-07
2.69166e-09
6.77225e-08
7.67021e-08
5.9509e-08
9.47451e-08
8.26839e-08
9.59183e-08
4.45361e-08
4.14196e-08
7.98189e-08
9.04178e-09
7.97178e-09
6.4333e-07
9.11104e-07
4.16634e-08
2.1137e-07
1.87816e-06
2.31567e-06
2.03096e-06
2.44244e-06
3.53119e-06
4.48804e-06
5.20938e-06
6.10337e-06
7.32161e-06
8.69794e-06
1.00923e-05
1.14079e-05
1.26618e-05
1.38457e-05
1.49928e-05
1.59924e-05
1.69204e-05
1.76972e-05
1.85009e-05
1.91178e-05
1.98599e-05
2.04043e-05
2.11228e-05
2.16238e-05
2.23702e-05
2.27858e-05
2.35338e-05
2.38552e-05
2.46141e-05
2.48334e-05
2.56327e-05
2.58507e-05
2.66481e-05
2.68154e-05
2.75973e-05
2.77041e-05
2.84561e-05
2.86539e-05
2.9303e-05
2.96067e-05
3.02108e-05
3.04261e-05
3.13657e-05
3.10277e-05
3.24278e-05
3.23049e-05
3.2406e-05
3.33049e-05
3.51826e-05
3.59246e-05
3.51104e-05
3.60867e-05
3.56905e-05
3.43775e-05
3.62821e-05
3.59306e-05
3.50782e-05
3.3732e-05
3.36306e-05
3.74097e-05
4.51443e-05
5.28474e-05
5.8215e-05
6.14302e-05
6.32418e-05
6.41582e-05
6.45838e-05
6.45674e-05
6.40319e-05
6.35087e-05
6.34676e-05
6.27982e-05
6.12685e-05
5.98069e-05
5.86311e-05
5.59243e-05
5.06021e-05
4.47851e-05
4.00365e-05
3.54345e-05
3.23884e-05
3.11294e-05
3.09404e-05
3.24305e-05
3.32176e-05
3.49404e-05
3.43333e-05
3.32663e-05
3.26444e-05
3.34089e-05
4.04172e-05
3.85378e-05
2.94454e-05
2.28081e-05
2.03341e-05
2.23445e-05
2.74777e-05
3.29943e-05
3.81384e-05
4.19237e-05
4.51308e-05
4.70761e-05
4.87719e-05
4.93495e-05
5.00522e-05
4.98042e-05
4.99804e-05
4.92557e-05
4.90637e-05
4.80022e-05
4.75681e-05
4.63903e-05
4.59202e-05
4.48401e-05
4.44308e-05
4.34087e-05
4.28988e-05
4.16911e-05
4.08065e-05
3.91611e-05
3.76875e-05
3.5501e-05
3.35535e-05
3.11688e-05
2.93317e-05
2.73432e-05
2.61174e-05
2.4684e-05
2.3932e-05
2.27745e-05
2.22897e-05
2.12242e-05
2.10672e-05
2.01542e-05
2.05807e-05
2.04378e-05
2.10262e-05
2.27168e-05
2.34708e-05
2.74661e-05
2.82947e-05
4.2963e-05
4.29855e-05
4.23602e-05
6.2778e-05
4.23146e-05
5.77235e-05
8.83788e-05
5.36502e-05
1.81155e-05
3.92505e-06
4.1236e-07
5.18313e-08
3.52064e-08
3.03424e-08
2.8408e-08
2.93503e-08
2.94174e-08
2.82431e-08
2.82364e-08
2.77765e-08
2.6913e-08
2.73468e-08
2.69038e-08
2.7093e-08
2.62055e-08
2.66092e-08
2.74079e-08
2.84798e-08
2.8478e-08
2.74791e-08
2.65945e-08
2.62899e-08
2.69583e-08
2.6846e-08
2.69719e-08
2.71704e-08
2.75887e-08
2.80004e-08
2.83252e-08
2.85849e-08
2.85429e-08
2.94328e-08
3.02978e-08
2.94947e-08
3.25242e-08
3.08143e-08
8.31457e-08
2.00162e-06
9.93093e-06
2.82662e-05
4.27765e-05
5.22188e-05
5.38718e-05
4.90263e-05
4.88719e-05
4.50577e-05
4.30997e-05
4.1025e-05
3.96031e-05
3.85843e-05
3.81541e-05
3.76558e-05
3.75791e-05
3.72709e-05
3.73504e-05
3.71148e-05
3.72211e-05
3.70396e-05
3.71311e-05
3.69876e-05
3.70738e-05
3.69518e-05
3.70318e-05
3.69147e-05
3.69911e-05
3.68758e-05
3.69543e-05
3.68311e-05
3.69135e-05
3.6781e-05
3.68572e-05
3.67099e-05
3.67993e-05
3.66857e-05
3.68206e-05
3.66954e-05
3.67769e-05
3.66029e-05
3.66765e-05
3.65244e-05
3.65827e-05
3.64271e-05
3.651e-05
3.63633e-05
3.64283e-05
3.63068e-05
3.63613e-05
3.62365e-05
3.62766e-05
3.61582e-05
3.61873e-05
3.6082e-05
3.6101e-05
3.59905e-05
3.59928e-05
3.58739e-05
3.58725e-05
3.5755e-05
3.57227e-05
3.55845e-05
3.5513e-05
3.53853e-05
3.53067e-05
3.5158e-05
3.50581e-05
3.4885e-05
3.47397e-05
3.45188e-05
3.43451e-05
3.4139e-05
3.39229e-05
3.36842e-05
3.34331e-05
3.31408e-05
3.28542e-05
3.24986e-05
3.21398e-05
3.17571e-05
3.13532e-05
3.09285e-05
3.04609e-05
3.00225e-05
2.96435e-05
2.91933e-05
2.86463e-05
2.80666e-05
2.75109e-05
2.69067e-05
2.63206e-05
2.5705e-05
2.50672e-05
2.44329e-05
2.3789e-05
2.31242e-05
2.24604e-05
2.18139e-05
2.11774e-05
2.05141e-05
1.98811e-05
1.92799e-05
1.87013e-05
1.8097e-05
1.7567e-05
1.70248e-05
1.64478e-05
1.59287e-05
1.533e-05
1.48293e-05
1.42505e-05
1.37484e-05
1.31751e-05
1.26368e-05
1.20407e-05
1.14919e-05
1.08788e-05
1.0269e-05
9.61784e-06
8.95921e-06
8.25359e-06
7.55814e-06
6.7816e-06
6.02666e-06
5.19753e-06
4.43361e-06
3.68151e-06
3.06624e-06
2.43345e-06
1.82267e-06
1.24871e-06
9.06799e-07
5.16328e-07
2.59838e-07
1.54616e-07
1.47212e-07
5.78554e-08
1.872e-08
2.67297e-08
5.00678e-08
2.42143e-08
1.86906e-08
3.15028e-08
2.46214e-08
3.2515e-08
4.10288e-08
2.86955e-08
2.48756e-08
3.92939e-08
3.53943e-08
4.2215e-08
3.36525e-08
2.80573e-08
2.5235e-08
3.22102e-08
2.78689e-08
1.56972e-08
6.13085e-09
6.69236e-08
9.27352e-08
1.54547e-07
1.89361e-07
4.4718e-08
1.03561e-07
2.10685e-07
1.21246e-07
5.40818e-08
2.71134e-08
1.90947e-08
4.48903e-08
2.13045e-08
2.25688e-08
4.3146e-08
2.39197e-08
3.47121e-09
1.5042e-08
1.46318e-08
6.23752e-10
8.19896e-10
1.3086e-08
5.57953e-09
3.13161e-09
1.05897e-08
2.93581e-08
6.81353e-08
1.13973e-07
1.48708e-07
3.37057e-07
7.53985e-07
1.30665e-06
1.87203e-06
2.71819e-06
3.56085e-06
4.5987e-06
5.56467e-06
6.70958e-06
7.7789e-06
9.10169e-06
1.01458e-05
1.15065e-05
1.25895e-05
1.39878e-05
1.4975e-05
1.6333e-05
1.70918e-05
1.83646e-05
1.8942e-05
2.01869e-05
2.06014e-05
2.19057e-05
2.23437e-05
2.36735e-05
2.40017e-05
2.53049e-05
2.55708e-05
2.6778e-05
2.71864e-05
2.8184e-05
2.8717e-05
2.97016e-05
3.01062e-05
3.15398e-05
3.14238e-05
3.31796e-05
3.33157e-05
3.46014e-05
3.54115e-05
3.75671e-05
3.87005e-05
3.77035e-05
3.94226e-05
3.94356e-05
3.76616e-05
4.04448e-05
4.04706e-05
3.9351e-05
3.77108e-05
3.79865e-05
4.33772e-05
5.44379e-05
6.61271e-05
7.50363e-05
8.10376e-05
8.50164e-05
8.75332e-05
8.917e-05
9.00146e-05
8.99439e-05
8.95695e-05
8.97629e-05
8.91612e-05
8.72381e-05
8.50622e-05
8.30345e-05
7.89466e-05
7.10391e-05
6.18619e-05
5.43236e-05
4.75807e-05
4.29018e-05
4.06875e-05
3.99765e-05
4.17486e-05
4.29266e-05
4.52256e-05
4.48815e-05
4.35402e-05
4.20594e-05
4.21804e-05
5.14798e-05
5.05441e-05
3.96574e-05
3.09621e-05
2.78062e-05
2.98984e-05
3.56051e-05
4.23384e-05
4.9166e-05
5.48696e-05
5.99904e-05
6.37613e-05
6.69411e-05
6.87813e-05
7.02585e-05
7.06286e-05
7.09625e-05
7.03684e-05
6.98936e-05
6.86372e-05
6.76457e-05
6.61147e-05
6.5e-05
6.35638e-05
6.25421e-05
6.12087e-05
6.01136e-05
5.85722e-05
5.70522e-05
5.49508e-05
5.27239e-05
4.98811e-05
4.69607e-05
4.36409e-05
4.05832e-05
3.75165e-05
3.50881e-05
3.28134e-05
3.11396e-05
2.94626e-05
2.8257e-05
2.68496e-05
2.59519e-05
2.47801e-05
2.44267e-05
2.43611e-05
2.50233e-05
2.69169e-05
2.89297e-05
3.37479e-05
3.62012e-05
4.96582e-05
4.27768e-05
4.8753e-05
6.88688e-05
4.12415e-05
7.18873e-05
0.000107479
6.53678e-05
2.17593e-05
4.67312e-06
5.13214e-07
4.88379e-08
3.01278e-08
3.26207e-08
2.87924e-08
2.88576e-08
2.90245e-08
2.84746e-08
2.82724e-08
2.79418e-08
2.69793e-08
2.75337e-08
2.68173e-08
2.70512e-08
2.62184e-08
2.66533e-08
2.73853e-08
2.85409e-08
2.85425e-08
2.72966e-08
2.66531e-08
2.6308e-08
2.69368e-08
2.67341e-08
2.72545e-08
2.69352e-08
2.77868e-08
2.81427e-08
2.82852e-08
2.87049e-08
2.88212e-08
3.02694e-08
3.2598e-08
2.70958e-08
3.13267e-08
3.42145e-08
3.49652e-08
5.31596e-07
5.52431e-06
2.09725e-05
3.8959e-05
5.07648e-05
5.29757e-05
5.07976e-05
5.12064e-05
4.88772e-05
4.77408e-05
4.64617e-05
4.5552e-05
4.493e-05
4.44412e-05
4.41695e-05
4.39382e-05
4.37818e-05
4.36976e-05
4.35874e-05
4.35654e-05
4.34797e-05
4.34772e-05
4.34045e-05
4.3413e-05
4.33445e-05
4.33587e-05
4.32857e-05
4.33042e-05
4.3227e-05
4.32459e-05
4.31575e-05
4.318e-05
4.30789e-05
4.30985e-05
4.29891e-05
4.30229e-05
4.29264e-05
4.29846e-05
4.28742e-05
4.28951e-05
4.27432e-05
4.27529e-05
4.26034e-05
4.26085e-05
4.24522e-05
4.24714e-05
4.2315e-05
4.23225e-05
4.21756e-05
4.21683e-05
4.20146e-05
4.19923e-05
4.18328e-05
4.18023e-05
4.16435e-05
4.15962e-05
4.14265e-05
4.13552e-05
4.11673e-05
4.10843e-05
4.08815e-05
4.07615e-05
4.05292e-05
4.03618e-05
4.01293e-05
3.99339e-05
3.96685e-05
3.94453e-05
3.91407e-05
3.8865e-05
3.85018e-05
3.81886e-05
3.78196e-05
3.7442e-05
3.70339e-05
3.66033e-05
3.61188e-05
3.56362e-05
3.50672e-05
3.45e-05
3.38955e-05
3.32678e-05
3.2622e-05
3.19383e-05
3.12388e-05
3.05654e-05
2.98603e-05
2.91096e-05
2.82788e-05
2.74605e-05
2.65837e-05
2.57479e-05
2.48709e-05
2.39937e-05
2.31099e-05
2.22307e-05
2.13237e-05
2.04534e-05
1.959e-05
1.87658e-05
1.78885e-05
1.70923e-05
1.62938e-05
1.55725e-05
1.47605e-05
1.4111e-05
1.33753e-05
1.26684e-05
1.19573e-05
1.1226e-05
1.05278e-05
9.77385e-06
9.08278e-06
8.27864e-06
7.5316e-06
6.66875e-06
5.90705e-06
5.04308e-06
4.28646e-06
3.54416e-06
2.93822e-06
2.32773e-06
1.81089e-06
1.22652e-06
9.08426e-07
4.90696e-07
2.85985e-07
1.30561e-07
1.29416e-07
6.3061e-08
5.11008e-08
3.36367e-08
5.92033e-08
3.03845e-08
6.86162e-08
4.18092e-08
6.75413e-08
4.68753e-08
6.59773e-08
4.83354e-08
6.04069e-08
5.31158e-08
5.49118e-08
5.60476e-08
5.63342e-08
6.80589e-08
5.4693e-08
6.38171e-08
5.09782e-08
4.64759e-08
4.48646e-08
5.62559e-08
6.21669e-08
8.45597e-08
5.8959e-08
5.72195e-08
2.3692e-08
5.79077e-08
2.99834e-08
1.02858e-07
9.46744e-08
4.0918e-08
6.4874e-08
2.42959e-08
3.67174e-08
7.95105e-08
1.03934e-09
1.30639e-08
1.78895e-08
2.37199e-08
3.29849e-08
2.15378e-08
2.92835e-08
3.04839e-08
2.57177e-08
2.3262e-08
3.38225e-08
4.16597e-08
2.70144e-08
2.91381e-08
2.94553e-08
2.26306e-08
2.1712e-08
1.68045e-08
2.15225e-08
1.20397e-08
2.61452e-08
1.10653e-08
3.40187e-08
1.63027e-08
4.33345e-08
1.79658e-08
5.21972e-08
4.35069e-08
1.80746e-07
1.76171e-07
5.9365e-07
6.50312e-07
1.44929e-06
1.76145e-06
2.80317e-06
3.25919e-06
4.60244e-06
5.49775e-06
7.15786e-06
8.05645e-06
9.826e-06
1.06633e-05
1.24545e-05
1.31279e-05
1.49827e-05
1.56903e-05
1.75546e-05
1.80325e-05
1.98262e-05
2.0262e-05
2.1894e-05
2.2543e-05
2.38635e-05
2.46201e-05
2.59792e-05
2.65505e-05
2.84662e-05
2.85762e-05
3.067e-05
3.09163e-05
3.33573e-05
3.43837e-05
3.63123e-05
3.77967e-05
3.65525e-05
3.88239e-05
3.94813e-05
3.73975e-05
4.08011e-05
4.14431e-05
4.00715e-05
3.8239e-05
3.91291e-05
4.60223e-05
5.97978e-05
7.48415e-05
8.70199e-05
9.59246e-05
0.000102486
0.000107184
0.000110667
0.000113037
0.000114083
0.000114341
0.000115102
0.000114946
0.00011301
0.000110235
0.000107299
0.000102002
9.19995e-05
7.96611e-05
6.90806e-05
5.99713e-05
5.34615e-05
5.00679e-05
4.86048e-05
5.03577e-05
5.19482e-05
5.4691e-05
5.4746e-05
5.34123e-05
5.10435e-05
5.00975e-05
6.04145e-05
6.09223e-05
4.95826e-05
3.95583e-05
3.58716e-05
3.79374e-05
4.37897e-05
5.10695e-05
5.88671e-05
6.59499e-05
7.26341e-05
7.81096e-05
8.28516e-05
8.61517e-05
8.86956e-05
8.9955e-05
9.07327e-05
9.04674e-05
8.99287e-05
8.85762e-05
8.71813e-05
8.52973e-05
8.36257e-05
8.17546e-05
8.01815e-05
7.84396e-05
7.68491e-05
7.49276e-05
7.2934e-05
7.04276e-05
6.76827e-05
6.43315e-05
6.07311e-05
5.66435e-05
5.25723e-05
4.83722e-05
4.46287e-05
4.11268e-05
3.82429e-05
3.56063e-05
3.34821e-05
3.14309e-05
2.97429e-05
2.80039e-05
2.679e-05
2.62634e-05
2.6736e-05
2.87619e-05
3.16924e-05
3.72627e-05
4.15742e-05
5.41313e-05
4.40905e-05
5.46361e-05
7.11236e-05
4.90335e-05
9.22729e-05
0.000128316
7.88172e-05
2.61289e-05
5.47626e-06
6.38398e-07
4.15142e-08
2.48957e-08
3.14067e-08
2.87058e-08
2.8332e-08
2.88673e-08
2.84593e-08
2.81223e-08
2.78232e-08
2.68539e-08
2.72484e-08
2.68883e-08
2.70694e-08
2.61717e-08
2.66378e-08
2.74185e-08
2.85269e-08
2.83909e-08
2.74276e-08
2.66348e-08
2.62393e-08
2.70701e-08
2.65967e-08
2.69884e-08
2.71744e-08
2.76094e-08
2.81517e-08
2.8355e-08
2.83954e-08
2.79273e-08
2.82712e-08
3.07359e-08
3.07107e-08
3.06016e-08
2.29701e-08
1.59471e-08
2.59554e-08
2.4885e-06
1.42296e-05
3.3849e-05
4.81183e-05
5.10796e-05
5.11036e-05
5.21419e-05
5.10352e-05
5.05447e-05
4.9904e-05
4.93716e-05
4.90412e-05
4.8704e-05
4.85408e-05
4.83407e-05
4.82457e-05
4.81422e-05
4.80763e-05
4.80277e-05
4.79739e-05
4.79495e-05
4.79012e-05
4.78878e-05
4.78398e-05
4.78307e-05
4.77784e-05
4.77709e-05
4.77137e-05
4.7703e-05
4.76345e-05
4.76224e-05
4.75423e-05
4.75282e-05
4.74421e-05
4.7434e-05
4.73474e-05
4.73484e-05
4.72477e-05
4.72218e-05
4.70875e-05
4.70468e-05
4.6903e-05
4.68579e-05
4.67025e-05
4.66602e-05
4.64953e-05
4.64395e-05
4.62707e-05
4.61958e-05
4.60155e-05
4.59223e-05
4.57239e-05
4.56222e-05
4.54102e-05
4.52849e-05
4.50543e-05
4.48964e-05
4.46365e-05
4.4456e-05
4.41668e-05
4.39433e-05
4.36129e-05
4.33354e-05
4.29891e-05
4.26609e-05
4.22715e-05
4.19099e-05
4.14695e-05
4.10506e-05
4.05405e-05
4.00744e-05
3.95318e-05
3.89822e-05
3.83944e-05
3.77718e-05
3.70865e-05
3.63981e-05
3.56096e-05
3.48298e-05
3.39995e-05
3.31471e-05
3.22792e-05
3.13747e-05
3.03944e-05
2.94231e-05
2.8482e-05
2.75468e-05
2.64761e-05
2.54169e-05
2.42892e-05
2.32336e-05
2.21245e-05
2.10468e-05
1.99468e-05
1.88738e-05
1.77618e-05
1.67269e-05
1.56787e-05
1.47031e-05
1.36353e-05
1.27073e-05
1.17135e-05
1.08581e-05
9.81333e-06
9.0246e-06
8.02414e-06
7.14103e-06
6.16767e-06
5.29709e-06
4.44604e-06
3.67365e-06
2.9996e-06
2.31162e-06
1.78365e-06
1.20742e-06
8.69717e-07
4.20367e-07
2.57286e-07
1.3583e-07
7.9118e-08
4.96208e-08
4.85296e-08
1.9027e-08
4.54405e-08
2.12805e-08
3.34426e-08
2.33163e-08
3.46537e-08
2.8317e-08
3.65393e-08
2.81319e-08
4.06061e-08
2.19942e-08
3.86494e-08
1.62663e-08
3.44897e-08
1.72688e-08
3.54761e-08
2.17514e-08
3.24163e-08
2.41721e-08
3.30129e-08
3.36305e-08
3.26759e-08
2.90282e-08
2.7068e-08
3.48596e-08
3.9271e-08
5.3764e-08
4.19998e-08
5.48802e-08
3.37375e-08
5.51098e-08
2.99171e-08
8.25578e-08
3.92048e-08
8.75948e-08
2.31726e-08
2.88437e-08
4.81411e-08
7.38571e-08
1.09324e-08
3.39079e-08
8.8822e-08
1.06844e-07
6.89957e-09
1.62612e-07
7.20243e-08
9.68266e-08
5.65743e-08
5.81812e-08
4.02484e-08
4.40219e-08
2.2454e-08
2.62266e-08
1.54082e-08
2.06486e-08
1.37567e-08
1.82074e-08
2.30724e-08
2.02526e-08
3.65594e-08
2.0335e-08
5.18328e-08
1.66684e-08
6.27247e-08
1.05152e-08
7.31623e-08
5.22077e-09
9.53039e-08
1.57776e-09
1.22646e-07
7.05737e-11
1.4635e-07
1.82902e-13
1.74897e-07
1.81288e-11
2.61448e-07
9.16141e-11
3.92482e-07
2.84575e-09
5.11159e-07
3.15092e-08
1.292e-06
4.36035e-07
2.154e-06
1.9451e-06
3.85874e-06
3.67565e-06
5.65791e-06
6.14595e-06
8.49464e-06
9.01808e-06
1.13662e-05
1.20765e-05
1.42012e-05
1.51943e-05
1.68721e-05
1.78931e-05
1.96265e-05
2.03843e-05
2.27495e-05
2.30734e-05
2.55345e-05
2.58132e-05
2.93185e-05
3.0782e-05
3.22094e-05
3.39863e-05
3.25041e-05
3.50478e-05
3.64546e-05
3.42529e-05
3.79718e-05
3.93971e-05
3.77911e-05
3.57554e-05
3.74313e-05
4.58495e-05
6.18219e-05
7.94637e-05
9.43689e-05
0.000105974
0.000115204
0.000122355
0.000128053
0.000132387
0.000135073
0.000136469
0.000138156
0.00013877
0.000137229
0.000134152
0.000130467
0.000124301
0.000112926
9.80345e-05
8.44478e-05
7.27614e-05
6.41876e-05
5.93783e-05
5.6947e-05
5.83668e-05
6.03313e-05
6.34499e-05
6.39507e-05
6.2839e-05
5.97461e-05
5.75909e-05
6.78241e-05
6.9819e-05
5.90623e-05
4.83839e-05
4.42375e-05
4.62078e-05
5.20417e-05
5.94984e-05
6.7752e-05
7.57015e-05
8.35209e-05
9.04022e-05
9.65702e-05
0.000101307
0.000105034
0.000107329
0.000108781
0.00010903
0.000108673
0.00010739
0.0001058
0.00010367
0.00010158
9.93016e-05
9.72459e-05
9.50873e-05
9.30588e-05
9.07739e-05
8.84069e-05
8.55751e-05
8.24734e-05
7.87759e-05
7.4735e-05
7.01305e-05
6.53533e-05
6.02574e-05
5.53429e-05
5.05177e-05
4.62024e-05
4.21873e-05
3.86996e-05
3.55371e-05
3.2771e-05
3.01195e-05
2.78138e-05
2.63544e-05
2.62398e-05
2.81724e-05
3.18355e-05
3.8134e-05
4.44819e-05
5.60938e-05
4.65155e-05
5.99439e-05
7.15041e-05
6.28409e-05
0.000114642
0.000148857
9.29276e-05
3.11686e-05
6.46734e-06
8.06652e-07
5.19851e-08
2.9697e-08
3.3606e-08
3.09844e-08
2.84579e-08
2.86677e-08
2.85965e-08
2.81993e-08
2.7909e-08
2.69091e-08
2.72437e-08
2.6865e-08
2.71067e-08
2.63054e-08
2.65997e-08
2.73589e-08
2.85119e-08
2.84368e-08
2.73489e-08
2.66446e-08
2.62173e-08
2.71738e-08
2.66421e-08
2.71427e-08
2.6955e-08
2.7812e-08
2.82803e-08
2.84224e-08
2.88149e-08
2.84955e-08
2.96425e-08
3.12033e-08
3.13331e-08
3.42877e-08
2.95257e-08
2.1491e-08
8.22424e-09
1.05039e-06
8.94329e-06
2.75475e-05
4.41459e-05
4.82891e-05
4.99318e-05
5.16959e-05
5.15611e-05
5.16275e-05
5.14909e-05
5.12821e-05
5.12114e-05
5.10328e-05
5.09936e-05
5.0872e-05
5.08421e-05
5.07697e-05
5.07441e-05
5.07034e-05
5.0679e-05
5.06541e-05
5.06288e-05
5.06107e-05
5.05821e-05
5.05657e-05
5.05315e-05
5.05136e-05
5.04719e-05
5.04485e-05
5.03957e-05
5.03662e-05
5.03029e-05
5.02691e-05
5.01986e-05
5.0162e-05
5.00832e-05
5.00441e-05
4.99504e-05
4.98898e-05
4.97687e-05
4.96903e-05
4.95523e-05
4.94627e-05
4.93075e-05
4.92077e-05
4.9033e-05
4.8914e-05
4.87241e-05
4.85793e-05
4.83722e-05
4.82043e-05
4.79657e-05
4.77868e-05
4.75199e-05
4.7309e-05
4.70147e-05
4.67611e-05
4.64256e-05
4.61374e-05
4.57604e-05
4.54204e-05
4.49892e-05
4.45894e-05
4.41228e-05
4.36502e-05
4.31333e-05
4.26226e-05
4.20452e-05
4.14726e-05
4.08138e-05
4.0185e-05
3.94627e-05
3.87347e-05
3.79617e-05
3.71399e-05
3.62515e-05
3.53533e-05
3.43454e-05
3.33548e-05
3.23e-05
3.12267e-05
3.014e-05
2.9015e-05
2.77528e-05
2.65039e-05
2.53538e-05
2.42544e-05
2.29666e-05
2.16997e-05
2.03535e-05
1.91167e-05
1.78099e-05
1.65736e-05
1.52924e-05
1.40652e-05
1.27724e-05
1.15798e-05
1.0317e-05
9.149e-06
7.81163e-06
6.7113e-06
5.49448e-06
4.62542e-06
3.50668e-06
2.98434e-06
2.0438e-06
1.62972e-06
8.02134e-07
6.90418e-07
2.32249e-07
2.46921e-07
6.54748e-08
1.17233e-07
2.7944e-08
8.87568e-08
1.81207e-08
8.04593e-08
1.23805e-08
1.01592e-07
1.23166e-08
1.08116e-07
1.83438e-08
8.37449e-08
2.55944e-08
7.16958e-08
2.61571e-08
7.28214e-08
2.10543e-08
7.25831e-08
1.88934e-08
7.00469e-08
2.38238e-08
6.38659e-08
3.35706e-08
6.36742e-08
4.34678e-08
6.38523e-08
4.06606e-08
5.9328e-08
3.96408e-08
6.9744e-08
3.58609e-08
5.82423e-08
3.02319e-08
6.96273e-08
4.05742e-08
7.41504e-08
2.47316e-08
4.84308e-08
1.80845e-08
6.34231e-08
2.72019e-08
8.72848e-08
3.14129e-08
6.33176e-08
2.98611e-08
7.13153e-08
1.05799e-07
9.8649e-08
8.26783e-08
1.72504e-08
2.30437e-08
3.37279e-08
6.34234e-08
2.78206e-08
1.15476e-08
2.13198e-07
1.62599e-08
6.08416e-08
8.69856e-09
2.73191e-08
7.52311e-09
2.28934e-08
1.08634e-08
2.42302e-08
1.6033e-08
2.11718e-08
1.9734e-08
1.35028e-08
2.45021e-08
8.04591e-09
2.85233e-08
4.00487e-09
3.17224e-08
1.62557e-09
3.59193e-08
1.24007e-09
4.80301e-08
1.33152e-09
6.93433e-08
1.04859e-09
1.129e-07
7.49552e-10
1.5889e-07
5.27314e-10
1.22542e-07
4.08972e-10
1.10711e-07
2.3097e-10
1.62769e-07
9.18995e-12
1.64387e-07
2.0611e-10
1.6608e-07
5.02444e-10
2.40539e-07
2.99048e-09
5.15208e-07
9.59477e-12
1.47925e-06
3.42087e-07
2.38459e-06
1.35764e-06
3.49994e-06
3.42535e-06
5.40159e-06
6.18977e-06
7.89704e-06
9.01041e-06
1.10056e-05
1.20074e-05
1.47651e-05
1.53975e-05
1.81845e-05