/*--------------------------------*- C++ -*----------------------------------*\
| =========                 |                                                 |
| \\      /  F ield         | OpenFOAM: The Open Source CFD Toolbox           |
|  \\    /   O peration     | Version:  v2006                                 |
|   \\  /    A nd           | Website:  www.openfoam.com                      |
|    \\/     M anipulation  |                                                 |
\*---------------------------------------------------------------------------*/
FoamFile
{
    version     2.0;
    format      ascii;
    class       volScalarField;
    location    "200";
    object      nuTilda;
}
// * * * * * * * * * * * * * * * * * * * * * * * * * * * * * * * * * * * * * //

dimensions      [0 2 -1 0 0 0 0];


internalField   nonuniform List<scalar> 
93840
(
3.98406e-07
3.98623e-07
3.98714e-07
3.99047e-07
4.00826e-07
4.01135e-07
4.02454e-07
4.01538e-07
4.02724e-07
4.02265e-07
4.02357e-07
4.04163e-07
4.08135e-07
4.06308e-07
4.06153e-07
4.09397e-07
4.10651e-07
5.58286e-07
1.91673e-06
9.12227e-06
2.85845e-05
5.10183e-05
4.83085e-05
5.00373e-05
4.97934e-05
3.36409e-05
3.1327e-05
2.19876e-05
1.88245e-05
1.57223e-05
1.33202e-05
1.18991e-05
1.25035e-05
1.19689e-05
1.20554e-05
1.19566e-05
1.1835e-05
1.18413e-05
1.16859e-05
1.16944e-05
1.15724e-05
1.15683e-05
1.14685e-05
1.14501e-05
1.13584e-05
1.1325e-05
1.12391e-05
1.12097e-05
1.11365e-05
1.1096e-05
1.10279e-05
1.09943e-05
1.0913e-05
1.08552e-05
1.0819e-05
1.08342e-05
1.07852e-05
1.07445e-05
1.06544e-05
1.062e-05
1.0593e-05
1.05543e-05
1.04964e-05
1.04984e-05
1.04744e-05
1.04608e-05
1.04503e-05
1.04672e-05
1.04533e-05
1.04606e-05
1.04638e-05
1.04717e-05
1.04854e-05
1.05154e-05
1.05295e-05
1.05628e-05
1.05914e-05
1.06268e-05
1.06739e-05
1.07202e-05
1.07589e-05
1.0805e-05
1.08534e-05
1.09237e-05
1.09938e-05
1.10602e-05
1.11366e-05
1.12068e-05
1.12791e-05
1.13571e-05
1.1464e-05
1.15785e-05
1.16917e-05
1.18147e-05
1.19414e-05
1.20824e-05
1.22224e-05
1.23664e-05
1.25168e-05
1.26836e-05
1.28535e-05
1.30189e-05
1.31917e-05
1.35212e-05
1.38478e-05
1.39333e-05
1.40028e-05
1.42536e-05
1.45249e-05
1.47927e-05
1.50585e-05
1.53254e-05
1.55867e-05
1.59052e-05
1.61928e-05
1.64826e-05
1.67424e-05
1.70515e-05
1.72952e-05
1.75523e-05
1.77405e-05
1.79776e-05
1.80857e-05
1.82632e-05
1.8247e-05
1.82565e-05
1.83056e-05
1.81521e-05
1.82134e-05
1.81306e-05
1.80184e-05
1.79578e-05
1.78306e-05
1.78033e-05
1.7706e-05
1.76415e-05
1.75136e-05
1.74604e-05
1.73694e-05
1.73276e-05
1.72698e-05
1.72064e-05
1.71187e-05
1.70513e-05
1.69917e-05
1.69286e-05
1.68753e-05
1.68104e-05
1.6723e-05
1.66216e-05
1.65351e-05
1.64303e-05
1.63223e-05
1.61975e-05
1.60638e-05
1.5919e-05
1.57487e-05
1.55698e-05
1.53602e-05
1.51557e-05
1.49627e-05
1.47382e-05
1.44725e-05
1.42007e-05
1.39125e-05
1.35346e-05
1.3018e-05
1.22923e-05
1.13278e-05
1.04654e-05
1.03661e-05
9.47825e-06
4.98341e-06
2.82428e-07
3.97172e-06
6.25726e-06
2.30813e-06
1.65557e-07
3.73626e-07
2.87712e-07
3.57063e-07
4.20151e-07
1.00403e-06
8.25392e-07
3.23259e-07
9.94868e-08
2.68091e-06
5.02384e-06
6.33962e-07
2.57745e-06
1.75778e-05
1.54476e-05
5.68458e-06
1.22695e-05
2.2566e-05
2.80334e-05
3.02277e-05
3.0923e-05
3.11361e-05
3.13051e-05
3.12033e-05
3.10741e-05
3.08652e-05
3.07294e-05
3.05396e-05
3.03854e-05
3.0168e-05
3.00031e-05
2.97872e-05
2.96125e-05
2.94215e-05
2.92731e-05
2.90933e-05
2.89531e-05
2.87554e-05
2.85776e-05
2.83488e-05
2.81929e-05
2.79954e-05
2.78976e-05
2.77904e-05
2.77137e-05
2.75076e-05
2.7363e-05
2.71302e-05
2.69748e-05
2.67315e-05
2.65924e-05
2.63147e-05
2.61131e-05
2.59333e-05
2.59599e-05
2.58424e-05
2.5845e-05
2.57128e-05
2.56027e-05
2.5414e-05
2.53005e-05
2.5123e-05
2.50144e-05
2.48257e-05
2.46999e-05
2.44312e-05
2.41453e-05
2.36556e-05
2.22715e-05
1.94662e-05
1.781e-05
1.75652e-05
1.79765e-05
1.7738e-05
1.74204e-05
1.72591e-05
1.73728e-05
1.75063e-05
1.75553e-05
1.75883e-05
1.75918e-05
1.77501e-05
1.80383e-05
1.82508e-05
1.83214e-05
1.83161e-05
1.82553e-05
1.81662e-05
1.80523e-05
1.79635e-05
1.7809e-05
1.74942e-05
1.72067e-05
1.71958e-05
1.71672e-05
1.68963e-05
1.65215e-05
1.62265e-05
1.59219e-05
1.55226e-05
1.50064e-05
1.44409e-05
1.40536e-05
1.37973e-05
1.36056e-05
1.35284e-05
1.33897e-05
1.33119e-05
1.30123e-05
1.2778e-05
1.26542e-05
1.26149e-05
1.29435e-05
1.23796e-05
1.1108e-05
1.04068e-05
9.99721e-06
1.02347e-05
1.07325e-05
1.11397e-05
1.1341e-05
1.14288e-05
1.1415e-05
1.13924e-05
1.13053e-05
1.12347e-05
1.10903e-05
1.09779e-05
1.0802e-05
1.06886e-05
1.05053e-05
1.03869e-05
1.01946e-05
1.00717e-05
9.86974e-06
9.75805e-06
9.56097e-06
9.46137e-06
9.24949e-06
9.12515e-06
8.85333e-06
8.66218e-06
8.32045e-06
8.07776e-06
7.72341e-06
7.50882e-06
7.2031e-06
7.05617e-06
6.78705e-06
6.69387e-06
6.4369e-06
6.40172e-06
6.14931e-06
6.21403e-06
5.9152e-06
6.23471e-06
5.74715e-06
6.58377e-06
5.26802e-06
8.4308e-06
6.81848e-06
1.21272e-05
1.41789e-05
2.25952e-05
3.27922e-05
3.10766e-05
4.93926e-05
4.79667e-05
4.87963e-05
5.89716e-05
3.48921e-05
1.16215e-05
2.41435e-06
6.15162e-07
4.17557e-07
4.05117e-07
4.02161e-07
3.98345e-07
4.04803e-07
4.04078e-07
4.02993e-07
4.02157e-07
4.0258e-07
4.01615e-07
4.02439e-07
4.01386e-07
4.00587e-07
3.99067e-07
3.98394e-07
3.98897e-07
3.98047e-07
3.98094e-07
3.99059e-07
3.98248e-07
3.98789e-07
4.00466e-07
4.00943e-07
4.01616e-07
4.02298e-07
4.01953e-07
4.0154e-07
4.02884e-07
4.02571e-07
4.03045e-07
4.01966e-07
3.99057e-07
4.01904e-07
4.14247e-07
5.19897e-07
1.39329e-06
6.43393e-06
2.18581e-05
4.33099e-05
4.7489e-05
5.20951e-05
5.24875e-05
4.08545e-05
3.88173e-05
3.0874e-05
2.65299e-05
2.22981e-05
1.97515e-05
1.77015e-05
1.70214e-05
1.7042e-05
1.70176e-05
1.68763e-05
1.70028e-05
1.68104e-05
1.70067e-05
1.67304e-05
1.70022e-05
1.66697e-05
1.69995e-05
1.66536e-05
1.69911e-05
1.66553e-05
1.69678e-05
1.66518e-05
1.69474e-05
1.66683e-05
1.69237e-05
1.66868e-05
1.69179e-05
1.66816e-05
1.6841e-05
1.66715e-05
1.68961e-05
1.67621e-05
1.69301e-05
1.67619e-05
1.69034e-05
1.68131e-05
1.69181e-05
1.68125e-05
1.69408e-05
1.68706e-05
1.69584e-05
1.69195e-05
1.70156e-05
1.69818e-05
1.70662e-05
1.7058e-05
1.71263e-05
1.71336e-05
1.72106e-05
1.72218e-05
1.72951e-05
1.73134e-05
1.73871e-05
1.7425e-05
1.75007e-05
1.7539e-05
1.7604e-05
1.76518e-05
1.77294e-05
1.77878e-05
1.78609e-05
1.79291e-05
1.80028e-05
1.80597e-05
1.81281e-05
1.82024e-05
1.82759e-05
1.83487e-05
1.84186e-05
1.84859e-05
1.85553e-05
1.86164e-05
1.86702e-05
1.87272e-05
1.87795e-05
1.88279e-05
1.88434e-05
1.88831e-05
1.8967e-05
1.90285e-05
1.90229e-05
1.9019e-05
1.90388e-05
1.90481e-05
1.90518e-05
1.90522e-05
1.90328e-05
1.90199e-05
1.89867e-05
1.89533e-05
1.88904e-05
1.88382e-05
1.87531e-05
1.86707e-05
1.85437e-05
1.84437e-05
1.82831e-05
1.8156e-05
1.79643e-05
1.78382e-05
1.76275e-05
1.74739e-05
1.72844e-05
1.70899e-05
1.69185e-05
1.67298e-05
1.65547e-05
1.63724e-05
1.6177e-05
1.60027e-05
1.58119e-05
1.56393e-05
1.54461e-05
1.52726e-05
1.50693e-05
1.48913e-05
1.46886e-05
1.45078e-05
1.42915e-05
1.40927e-05
1.38607e-05
1.36414e-05
1.33918e-05
1.31502e-05
1.28781e-05
1.26057e-05
1.23046e-05
1.19952e-05
1.16469e-05
1.12553e-05
1.07894e-05
1.02854e-05
9.7249e-06
9.09842e-06
8.30676e-06
7.30619e-06
6.29098e-06
5.68971e-06
5.48376e-06
4.94197e-06
3.60659e-06
2.00336e-06
1.0347e-06
1.15024e-06
1.72704e-06
1.51026e-06
4.16787e-07
7.49295e-08
2.09269e-07
2.75089e-07
2.30279e-07
4.5615e-07
1.09658e-07
4.54853e-07
5.48519e-07
3.48288e-07
3.27966e-07
5.76914e-07
4.95177e-07
2.77637e-07
3.16868e-07
4.16015e-07
5.87402e-08
5.87012e-07
1.74816e-06
1.03839e-06
1.26399e-06
7.13698e-07
3.6845e-06
7.47525e-06
8.77331e-06
8.50889e-06
9.71087e-06
1.21647e-05
1.40029e-05
1.50093e-05
1.58937e-05
1.71338e-05
1.83547e-05
1.93454e-05
2.01227e-05
2.07815e-05
2.13581e-05
2.18778e-05
2.22719e-05
2.25996e-05
2.28483e-05
2.30976e-05
2.32899e-05
2.34914e-05
2.36443e-05
2.38245e-05
2.39442e-05
2.41128e-05
2.42172e-05
2.44018e-05
2.45068e-05
2.47057e-05
2.47852e-05
2.49871e-05
2.50258e-05
2.52382e-05
2.52295e-05
2.546e-05
2.54098e-05
2.56153e-05
2.55831e-05
2.5795e-05
2.57573e-05
2.59911e-05
2.59719e-05
2.61801e-05
2.61979e-05
2.63715e-05
2.63269e-05
2.66561e-05
2.62358e-05
2.68997e-05
2.65578e-05
2.61517e-05
2.64421e-05
2.72324e-05
2.73325e-05
2.6638e-05
2.67395e-05
2.61987e-05
2.54783e-05
2.60864e-05
2.56825e-05
2.51955e-05
2.44539e-05
2.42425e-05
2.5808e-05
2.87601e-05
3.12793e-05
3.27633e-05
3.34912e-05
3.37639e-05
3.37882e-05
3.36762e-05
3.34294e-05
3.30317e-05
3.27569e-05
3.26419e-05
3.21565e-05
3.14005e-05
3.08413e-05
3.04534e-05
2.93868e-05
2.74059e-05
2.53807e-05
2.35469e-05
2.14014e-05
2.01074e-05
1.96832e-05
1.97725e-05
2.05584e-05
2.09107e-05
2.16745e-05
2.11223e-05
2.06688e-05
2.06526e-05
2.12517e-05
2.39224e-05
2.24534e-05
1.74761e-05
1.4171e-05
1.28498e-05
1.44157e-05
1.77865e-05
2.06051e-05
2.26423e-05
2.36333e-05
2.44873e-05
2.46979e-05
2.51306e-05
2.49557e-05
2.51854e-05
2.48101e-05
2.49628e-05
2.44488e-05
2.45366e-05
2.38991e-05
2.39576e-05
2.32791e-05
2.33574e-05
2.2713e-05
2.2829e-05
2.21837e-05
2.22487e-05
2.15312e-05
2.14339e-05
2.05703e-05
2.01881e-05
1.91176e-05
1.84783e-05
1.73817e-05
1.68008e-05
1.59413e-05
1.55998e-05
1.49572e-05
1.47476e-05
1.42e-05
1.4099e-05
1.36127e-05
1.37066e-05
1.33647e-05
1.37842e-05
1.38999e-05
1.33705e-05
1.5749e-05
1.29847e-05
1.71302e-05
1.88914e-05
3.37453e-05
4.05121e-05
3.52389e-05
5.41454e-05
4.58197e-05
5.03188e-05
7.09137e-05
4.30094e-05
1.46433e-05
3.14204e-06
7.64757e-07
4.43778e-07
4.10774e-07
4.09937e-07
4.03786e-07
4.03979e-07
4.03591e-07
4.03059e-07
4.02788e-07
4.02512e-07
4.01251e-07
4.03039e-07
4.01404e-07
4.00314e-07
3.98882e-07
3.98379e-07
3.98457e-07
3.97966e-07
3.98237e-07
3.98578e-07
3.98366e-07
3.98943e-07
4.00101e-07
4.01088e-07
4.01569e-07
4.01653e-07
4.01591e-07
4.0231e-07
4.02407e-07
4.02864e-07
4.05618e-07
4.08341e-07
4.09905e-07
4.0029e-07
4.06937e-07
4.47617e-07
8.31943e-07
3.92837e-06
1.52783e-05
3.55552e-05
4.55126e-05
5.2689e-05
5.38032e-05
4.59937e-05
4.52112e-05
3.96995e-05
3.68693e-05
3.37901e-05
3.18339e-05
3.04279e-05
2.90505e-05
2.93487e-05
2.90453e-05
2.88642e-05
2.89992e-05
2.87545e-05
2.8904e-05
2.87088e-05
2.88318e-05
2.86741e-05
2.88005e-05
2.86556e-05
2.87888e-05
2.86321e-05
2.8771e-05
2.86067e-05
2.87626e-05
2.85872e-05
2.87484e-05
2.85719e-05
2.87211e-05
2.85144e-05
2.86631e-05
2.85297e-05
2.87451e-05
2.86023e-05
2.87406e-05
2.85465e-05
2.86839e-05
2.85408e-05
2.8637e-05
2.84928e-05
2.86265e-05
2.84966e-05
2.85994e-05
2.85115e-05
2.86091e-05
2.85174e-05
2.86029e-05
2.85288e-05
2.85966e-05
2.85452e-05
2.86108e-05
2.85572e-05
2.86124e-05
2.85588e-05
2.86145e-05
2.85777e-05
2.86118e-05
2.85608e-05
2.85662e-05
2.85298e-05
2.85438e-05
2.85007e-05
2.85001e-05
2.84492e-05
2.84167e-05
2.83292e-05
2.82771e-05
2.82155e-05
2.81444e-05
2.80594e-05
2.79685e-05
2.7853e-05
2.77446e-05
2.75895e-05
2.7428e-05
2.7256e-05
2.70684e-05
2.68616e-05
2.66056e-05
2.63981e-05
2.62797e-05
2.60866e-05
2.57649e-05
2.54402e-05
2.51533e-05
2.48314e-05
2.45131e-05
2.41769e-05
2.38098e-05
2.34504e-05
2.30757e-05
2.26879e-05
2.22768e-05
2.18843e-05
2.14794e-05
2.10631e-05
2.06362e-05
2.02485e-05
1.98427e-05
1.94506e-05
1.90656e-05
1.87111e-05
1.82871e-05
1.79517e-05
1.75119e-05
1.7174e-05
1.67786e-05
1.64199e-05
1.60382e-05
1.56531e-05
1.52563e-05
1.48786e-05
1.44749e-05
1.40707e-05
1.36525e-05
1.32404e-05
1.28053e-05
1.23964e-05
1.19376e-05
1.14969e-05
1.09872e-05
1.04889e-05
9.92059e-06
9.35465e-06
8.70421e-06
8.03218e-06
7.28853e-06
6.56282e-06
5.83128e-06
5.22071e-06
4.67265e-06
4.08684e-06
3.28791e-06
2.50859e-06
2.06054e-06
1.8779e-06
1.45462e-06
8.72147e-07
5.82065e-07
5.95165e-07
5.47614e-07
4.59258e-07
4.03142e-07
4.32912e-07
4.74561e-07
4.10144e-07
3.2496e-07
3.6854e-07
4.86642e-07
5.70204e-07
5.57544e-07
4.96844e-07
6.02871e-07
4.99337e-07
5.53074e-07
1.67364e-07
2.96335e-07
6.04591e-07
5.35374e-07
1.97634e-07
4.74322e-07
5.0619e-07
4.97057e-07
5.87463e-07
5.82475e-07
6.10904e-07
5.11575e-07
5.17612e-07
6.3227e-07
3.65908e-07
3.60071e-07
1.295e-06
1.50871e-06
5.67188e-07
9.00235e-07
2.26248e-06
2.62359e-06
2.38799e-06
2.73002e-06
3.69829e-06
4.59856e-06
5.29344e-06
6.16553e-06
7.36561e-06
8.72938e-06
1.0116e-05
1.14267e-05
1.26772e-05
1.38588e-05
1.50041e-05
1.60026e-05
1.69296e-05
1.77058e-05
1.85088e-05
1.91254e-05
1.9867e-05
2.04113e-05
2.11294e-05
2.16302e-05
2.23762e-05
2.27917e-05
2.35394e-05
2.38607e-05
2.46194e-05
2.48387e-05
2.56377e-05
2.58558e-05
2.6653e-05
2.68203e-05
2.76021e-05
2.77089e-05
2.84607e-05
2.86586e-05
2.93074e-05
2.96112e-05
3.02151e-05
3.04304e-05
3.13698e-05
3.1032e-05
3.24318e-05
3.2309e-05
3.24101e-05
3.3309e-05
3.51863e-05
3.59281e-05
3.51141e-05
3.60904e-05
3.56942e-05
3.43817e-05
3.6286e-05
3.59346e-05
3.50824e-05
3.37368e-05
3.36354e-05
3.74138e-05
4.5147e-05
5.28494e-05
5.82163e-05
6.14311e-05
6.32428e-05
6.41591e-05
6.45846e-05
6.45682e-05
6.40326e-05
6.35094e-05
6.34682e-05
6.27988e-05
6.12691e-05
5.98075e-05
5.86317e-05
5.5925e-05
5.06029e-05
4.4786e-05
4.00377e-05
3.54359e-05
3.23901e-05
3.11313e-05
3.09422e-05
3.24321e-05
3.32191e-05
3.49418e-05
3.43347e-05
3.32677e-05
3.26459e-05
3.34104e-05
4.04182e-05
3.85389e-05
2.94472e-05
2.2811e-05
2.03377e-05
2.23475e-05
2.74797e-05
3.29957e-05
3.81394e-05
4.19246e-05
4.51315e-05
4.70768e-05
4.87725e-05
4.935e-05
5.00527e-05
4.98048e-05
4.9981e-05
4.92563e-05
4.90643e-05
4.80028e-05
4.75687e-05
4.6391e-05
4.59208e-05
4.48407e-05
4.44315e-05
4.34094e-05
4.28995e-05
4.16919e-05
4.08073e-05
3.9162e-05
3.76884e-05
3.5502e-05
3.35547e-05
3.11702e-05
2.93333e-05
2.7345e-05
2.61194e-05
2.46862e-05
2.39343e-05
2.2777e-05
2.22924e-05
2.12271e-05
2.10702e-05
2.01575e-05
2.05839e-05
2.0441e-05
2.10292e-05
2.27193e-05
2.34732e-05
2.74679e-05
2.82962e-05
4.29636e-05
4.29861e-05
4.23608e-05
6.27782e-05
4.23151e-05
5.77237e-05
8.83789e-05
5.36505e-05
1.81179e-05
3.97402e-06
8.86329e-07
4.64649e-07
4.20448e-07
4.03812e-07
3.98548e-07
4.03219e-07
4.04072e-07
4.025e-07
4.02344e-07
4.02282e-07
4.01653e-07
4.02642e-07
4.01662e-07
4.00409e-07
3.98651e-07
3.98328e-07
3.98707e-07
3.9821e-07
3.9825e-07
3.9895e-07
3.98222e-07
3.99007e-07
3.99959e-07
4.01386e-07
4.01209e-07
4.02533e-07
4.01459e-07
4.01659e-07
4.02854e-07
4.01e-07
4.00122e-07
4.02194e-07
4.03617e-07
4.01133e-07
4.09883e-07
4.04295e-07
5.27415e-07
2.15869e-06
9.93885e-06
2.82672e-05
4.2777e-05
5.22191e-05
5.38721e-05
4.90266e-05
4.88723e-05
4.50582e-05
4.31002e-05
4.10255e-05
3.96036e-05
3.85849e-05
3.81547e-05
3.76564e-05
3.75797e-05
3.72716e-05
3.73511e-05
3.71155e-05
3.72218e-05
3.70402e-05
3.71317e-05
3.69882e-05
3.70744e-05
3.69524e-05
3.70324e-05
3.69154e-05
3.69917e-05
3.68764e-05
3.6955e-05
3.68317e-05
3.69141e-05
3.67816e-05
3.68578e-05
3.67106e-05
3.67999e-05
3.66863e-05
3.68212e-05
3.6696e-05
3.67775e-05
3.66035e-05
3.66771e-05
3.65251e-05
3.65833e-05
3.64278e-05
3.65106e-05
3.63639e-05
3.64289e-05
3.63074e-05
3.63619e-05
3.62371e-05
3.62772e-05
3.61588e-05
3.6188e-05
3.60826e-05
3.61016e-05
3.59911e-05
3.59934e-05
3.58746e-05
3.58732e-05
3.57557e-05
3.57234e-05
3.55852e-05
3.55137e-05
3.5386e-05
3.53074e-05
3.51587e-05
3.50588e-05
3.48857e-05
3.47404e-05
3.45195e-05
3.43458e-05
3.41398e-05
3.39237e-05
3.3685e-05
3.34339e-05
3.31416e-05
3.28551e-05
3.24994e-05
3.21407e-05
3.17581e-05
3.13541e-05
3.09295e-05
3.04619e-05
3.00236e-05
2.96446e-05
2.91944e-05
2.86475e-05
2.80679e-05
2.75122e-05
2.6908e-05
2.63221e-05
2.57065e-05
2.50688e-05
2.44346e-05
2.37908e-05
2.31261e-05
2.24625e-05
2.18161e-05
2.11798e-05
2.05166e-05
1.98837e-05
1.92827e-05
1.87043e-05
1.81002e-05
1.75703e-05
1.70283e-05
1.64516e-05
1.59326e-05
1.53342e-05
1.48337e-05
1.42552e-05
1.37534e-05
1.31805e-05
1.26425e-05
1.20469e-05
1.14987e-05
1.08862e-05
1.02772e-05
9.62714e-06
8.96979e-06
8.26596e-06
7.57266e-06
6.79943e-06
6.04889e-06
5.22702e-06
4.47328e-06
3.73765e-06
3.14394e-06
2.54848e-06
1.99896e-06
1.52136e-06
1.25512e-06
9.5848e-07
7.392e-07
6.24296e-07
6.13468e-07
4.67657e-07
3.44993e-07
3.77727e-07
4.45702e-07
3.66001e-07
3.41099e-07
3.90255e-07
3.6459e-07
3.91229e-07
4.1494e-07
3.75808e-07
3.60453e-07
4.05778e-07
3.92926e-07
4.10383e-07
3.84466e-07
3.64699e-07
3.53106e-07
3.74951e-07
3.59036e-07
3.07277e-07
2.40134e-07
4.49717e-07
4.91503e-07
5.73291e-07
6.11737e-07
4.04004e-07
5.18094e-07
6.61732e-07
5.70979e-07
4.72728e-07
4.06788e-07
3.83226e-07
4.85641e-07
4.11753e-07
4.3195e-07
5.25689e-07
4.59899e-07
2.8595e-07
4.21828e-07
4.23483e-07
1.91544e-07
2.0749e-07
4.17988e-07
3.37698e-07
2.91492e-07
3.97073e-07
5.16683e-07
6.44495e-07
7.44217e-07
8.01645e-07
1.03012e-06
1.38843e-06
1.80427e-06
2.24396e-06
2.95538e-06
3.71768e-06
4.69922e-06
5.63617e-06
6.75975e-06
7.8167e-06
9.12965e-06
1.01688e-05
1.15247e-05
1.2605e-05
1.40006e-05
1.49863e-05
1.63427e-05
1.71008e-05
1.83725e-05
1.89495e-05
2.01937e-05
2.0608e-05
2.19115e-05
2.23494e-05
2.36788e-05
2.40069e-05
2.53097e-05
2.55756e-05
2.67824e-05
2.71909e-05
2.81881e-05
2.87211e-05
2.97055e-05
3.01101e-05
3.15434e-05
3.14274e-05
3.31829e-05
3.3319e-05
3.46045e-05
3.54146e-05
3.75699e-05
3.87031e-05
3.77064e-05
3.94253e-05
3.94383e-05
3.76647e-05
4.04475e-05
4.04733e-05
3.9354e-05
3.77141e-05
3.79899e-05
4.33799e-05
5.44396e-05
6.61282e-05
7.5037e-05
8.1038e-05
8.50169e-05
8.75336e-05
8.91704e-05
9.0015e-05
8.99442e-05
8.95699e-05
8.97632e-05
8.91615e-05
8.72384e-05
8.50625e-05
8.30348e-05
7.89469e-05
7.10395e-05
6.18624e-05
5.43243e-05
4.75815e-05
4.29028e-05
4.06886e-05
3.99776e-05
4.17495e-05
4.29276e-05
4.52264e-05
4.48823e-05
4.35411e-05
4.20603e-05
4.21813e-05
5.14804e-05
5.05447e-05
3.96583e-05
3.09637e-05
2.78081e-05
2.99001e-05
3.56063e-05
4.23393e-05
4.91667e-05
5.48701e-05
5.99908e-05
6.37617e-05
6.69414e-05
6.87816e-05
7.02588e-05
7.06289e-05
7.09628e-05
7.03687e-05
6.98939e-05
6.86375e-05
6.7646e-05
6.6115e-05
6.50003e-05
6.35641e-05
6.25424e-05
6.1209e-05
6.0114e-05
5.85725e-05
5.70526e-05
5.49512e-05
5.27244e-05
4.98816e-05
4.69613e-05
4.36416e-05
4.0584e-05
3.75174e-05
3.50892e-05
3.28146e-05
3.1141e-05
2.94641e-05
2.82587e-05
2.68515e-05
2.59539e-05
2.47822e-05
2.44289e-05
2.43633e-05
2.50255e-05
2.69187e-05
2.89312e-05
3.3749e-05
3.62022e-05
4.96587e-05
4.27775e-05
4.87535e-05
6.8869e-05
4.12421e-05
7.18875e-05
0.000107479
6.5368e-05
2.17609e-05
4.7082e-06
9.67463e-07
4.57194e-07
4.0341e-07
4.11716e-07
4.00008e-07
4.01401e-07
4.02629e-07
4.03235e-07
4.02632e-07
4.02773e-07
4.01708e-07
4.03183e-07
4.015e-07
4.00169e-07
3.9873e-07
3.98555e-07
3.98585e-07
3.98347e-07
3.9837e-07
3.9824e-07
3.98445e-07
3.9909e-07
3.99711e-07
4.01015e-07
4.0208e-07
4.01499e-07
4.0206e-07
4.02292e-07
4.02454e-07
4.01582e-07
4.01176e-07
4.05224e-07
4.11499e-07
3.92263e-07
4.05767e-07
4.15736e-07
4.15934e-07
9.79122e-07
5.5496e-06
2.09743e-05
3.89596e-05
5.07651e-05
5.2976e-05
5.0798e-05
5.12067e-05
4.88775e-05
4.77412e-05
4.64622e-05
4.55524e-05
4.49305e-05
4.44416e-05
4.417e-05
4.39386e-05
4.37822e-05
4.3698e-05
4.35878e-05
4.35658e-05
4.34801e-05
4.34776e-05
4.3405e-05
4.34135e-05
4.33449e-05
4.33592e-05
4.32862e-05
4.33046e-05
4.32275e-05
4.32464e-05
4.31579e-05
4.31804e-05
4.30793e-05
4.30989e-05
4.29896e-05
4.30233e-05
4.29268e-05
4.29851e-05
4.28746e-05
4.28956e-05
4.27437e-05
4.27533e-05
4.26038e-05
4.26089e-05
4.24526e-05
4.24719e-05
4.23155e-05
4.2323e-05
4.21761e-05
4.21688e-05
4.20151e-05
4.19928e-05
4.18333e-05
4.18028e-05
4.1644e-05
4.15967e-05
4.14269e-05
4.13557e-05
4.11678e-05
4.10848e-05
4.0882e-05
4.0762e-05
4.05297e-05
4.03623e-05
4.01298e-05
3.99344e-05
3.9669e-05
3.94458e-05
3.91412e-05
3.88656e-05
3.85023e-05
3.81892e-05
3.78202e-05
3.74427e-05
3.70345e-05
3.66039e-05
3.61195e-05
3.56369e-05
3.5068e-05
3.45007e-05
3.38963e-05
3.32687e-05
3.26229e-05
3.19392e-05
3.12398e-05
3.05664e-05
2.98614e-05
2.91107e-05
2.828e-05
2.74618e-05
2.65851e-05
2.57493e-05
2.48725e-05
2.39954e-05
2.31117e-05
2.22327e-05
2.13259e-05
2.04558e-05
1.95927e-05
1.87687e-05
1.78917e-05
1.70958e-05
1.62976e-05
1.55767e-05
1.47652e-05
1.4116e-05
1.33809e-05
1.26745e-05
1.1964e-05
1.12336e-05
1.05363e-05
9.78363e-06
9.09395e-06
8.29195e-06
7.5474e-06
6.68869e-06
5.93199e-06
5.07669e-06
4.33187e-06
3.6084e-06
3.02745e-06
2.45876e-06
1.99845e-06
1.51543e-06
1.26924e-06
9.51045e-07
7.75361e-07
6.02941e-07
5.99898e-07
4.87466e-07
4.58661e-07
4.09204e-07
4.75662e-07
3.96664e-07
4.93319e-07
4.29901e-07
4.88819e-07
4.41109e-07
4.83089e-07
4.42386e-07
4.68829e-07
4.51407e-07
4.54344e-07
4.55589e-07
4.5488e-07
4.7783e-07
4.48433e-07
4.66339e-07
4.36661e-07
4.24393e-07
4.18632e-07
4.4355e-07
4.53836e-07
4.93087e-07
4.4353e-07
4.3772e-07
3.43505e-07
4.34923e-07
3.62674e-07
5.08536e-07
4.93895e-07
3.91146e-07
4.43903e-07
3.44254e-07
3.88032e-07
4.93247e-07
1.64324e-07
3.25267e-07
3.65504e-07
4.05729e-07
4.48618e-07
4.14702e-07
4.61608e-07
4.78127e-07
4.68465e-07
4.65662e-07
5.23554e-07
5.56585e-07
5.01304e-07
5.13369e-07
5.17519e-07
4.84449e-07
4.7961e-07
4.49519e-07
4.7774e-07
4.12041e-07
5.01914e-07
4.02232e-07
5.3646e-07
4.43321e-07
5.70846e-07
4.54213e-07
5.99228e-07
5.71945e-07
8.49007e-07
8.43268e-07
1.26174e-06
1.30776e-06
1.9156e-06
2.15898e-06
3.03235e-06
3.44276e-06
4.70518e-06
5.57203e-06
7.20292e-06
8.09254e-06
9.85053e-06
1.06844e-05
1.24702e-05
1.31421e-05
1.49937e-05
1.57005e-05
1.7563e-05
1.80406e-05
1.98331e-05
2.02687e-05
2.18998e-05
2.25487e-05
2.38686e-05
2.46249e-05
2.59837e-05
2.65548e-05
2.84701e-05
2.85801e-05
3.06734e-05
3.09198e-05
3.33603e-05
3.43866e-05
3.63149e-05
3.77992e-05
3.65552e-05
3.88263e-05
3.94837e-05
3.74002e-05
4.08035e-05
4.14454e-05
4.00741e-05
3.82418e-05
3.91319e-05
4.60244e-05
5.9799e-05
7.48423e-05
8.70204e-05
9.59249e-05
0.000102487
0.000107184
0.000110668
0.000113037
0.000114083
0.000114341
0.000115102
0.000114946
0.00011301
0.000110235
0.000107299
0.000102002
9.19998e-05
7.96614e-05
6.9081e-05
5.99718e-05
5.34621e-05
5.00686e-05
4.86055e-05
5.03584e-05
5.19488e-05
5.46916e-05
5.47466e-05
5.34129e-05
5.10441e-05
5.00982e-05
6.04149e-05
6.09227e-05
4.95832e-05
3.95592e-05
3.58728e-05
3.79384e-05
4.37905e-05
5.10701e-05
5.88676e-05
6.59502e-05
7.26344e-05
7.81098e-05
8.28518e-05
8.61519e-05
8.86958e-05
8.99551e-05
9.07328e-05
9.04676e-05
8.99289e-05
8.85764e-05
8.71814e-05
8.52975e-05
8.36259e-05
8.17548e-05
8.01817e-05
7.84398e-05
7.68494e-05
7.49279e-05
7.29342e-05
7.04279e-05
6.7683e-05
6.43318e-05
6.07314e-05
5.6644e-05
5.25728e-05
4.83727e-05
4.46294e-05
4.11276e-05
3.82438e-05
3.56073e-05
3.34833e-05
3.14323e-05
2.97444e-05
2.80056e-05
2.67918e-05
2.62654e-05
2.67379e-05
2.87634e-05
3.16937e-05
3.72637e-05
4.15749e-05
5.41318e-05
4.40911e-05
5.46365e-05
7.11238e-05
4.90339e-05
9.2273e-05
0.000128316
7.88173e-05
2.61301e-05
5.50201e-06
1.06348e-06
4.37563e-07
3.83591e-07
4.07531e-07
3.9968e-07
3.99439e-07
4.02099e-07
4.03313e-07
4.01975e-07
4.0242e-07
4.01339e-07
4.02233e-07
4.01409e-07
4.00259e-07
3.9852e-07
3.98444e-07
3.98741e-07
3.98395e-07
3.97879e-07
3.98743e-07
3.98355e-07
3.98692e-07
4.00425e-07
4.0038e-07
4.01268e-07
4.0257e-07
4.01516e-07
4.02085e-07
4.03001e-07
4.00325e-07
3.97846e-07
3.97952e-07
4.05148e-07
4.05472e-07
4.03292e-07
3.7425e-07
3.38409e-07
3.85092e-07
2.5992e-06
1.42335e-05
3.38497e-05
4.81187e-05
5.10799e-05
5.11039e-05
5.21422e-05
5.10355e-05
5.05451e-05
4.99044e-05
4.9372e-05
4.90416e-05
4.87044e-05
4.85412e-05
4.83411e-05
4.82461e-05
4.81426e-05
4.80767e-05
4.8028e-05
4.79743e-05
4.79499e-05
4.79016e-05
4.78882e-05
4.78402e-05
4.78311e-05
4.77788e-05
4.77712e-05
4.77141e-05
4.77033e-05
4.76348e-05
4.76227e-05
4.75427e-05
4.75285e-05
4.74424e-05
4.74343e-05
4.73478e-05
4.73488e-05
4.72481e-05
4.72222e-05
4.70878e-05
4.70471e-05
4.69034e-05
4.68583e-05
4.67029e-05
4.66605e-05
4.64956e-05
4.64399e-05
4.62711e-05
4.61962e-05
4.60159e-05
4.59227e-05
4.57243e-05
4.56226e-05
4.54106e-05
4.52853e-05
4.50547e-05
4.48968e-05
4.46369e-05
4.44564e-05
4.41673e-05
4.39438e-05
4.36133e-05
4.33359e-05
4.29896e-05
4.26613e-05
4.2272e-05
4.19104e-05
4.147e-05
4.10511e-05
4.0541e-05
4.0075e-05
3.95323e-05
3.89827e-05
3.8395e-05
3.77724e-05
3.70872e-05
3.63987e-05
3.56103e-05
3.48305e-05
3.40003e-05
3.31479e-05
3.228e-05
3.13757e-05
3.03954e-05
2.94241e-05
2.84832e-05
2.7548e-05
2.64774e-05
2.54183e-05
2.42907e-05
2.32353e-05
2.21264e-05
2.1049e-05
1.99493e-05
1.88765e-05
1.77649e-05
1.67304e-05
1.56827e-05
1.47076e-05
1.36407e-05
1.27135e-05
1.17207e-05
1.08665e-05
9.82362e-06
9.03665e-06
8.03925e-06
7.15991e-06
6.19255e-06
5.33035e-06
4.4921e-06
3.7387e-06
3.09243e-06
2.45358e-06
1.98694e-06
1.51558e-06
1.25521e-06
9.07975e-07
7.60179e-07
6.20448e-07
5.291e-07
4.64653e-07
4.60312e-07
3.58475e-07
4.50169e-07
3.67541e-07
4.12855e-07
3.7492e-07
4.15222e-07
3.93134e-07
4.19277e-07
3.90556e-07
4.29402e-07
3.64438e-07
4.21883e-07
3.35228e-07
4.07313e-07
3.38731e-07
4.08213e-07
3.57774e-07
3.96212e-07
3.6562e-07
3.95939e-07
3.96863e-07
3.92588e-07
3.79366e-07
3.71006e-07
3.95558e-07
4.06817e-07
4.41634e-07
4.11254e-07
4.40656e-07
3.84445e-07
4.37245e-07
3.69179e-07
4.85658e-07
3.93407e-07
4.89602e-07
3.38735e-07
3.57968e-07
4.08703e-07
4.61271e-07
2.76685e-07
3.75779e-07
4.95697e-07
5.33175e-07
2.62122e-07
6.37929e-07
5.19531e-07
5.80066e-07
5.08902e-07
5.26842e-07
4.9242e-07
5.15854e-07
4.44579e-07
4.69246e-07
4.18154e-07
4.55375e-07
4.14339e-07
4.48098e-07
4.80848e-07
4.64798e-07
5.44675e-07
4.6635e-07
5.9801e-07
4.43337e-07
6.28613e-07
3.93839e-07
6.52947e-07
3.29108e-07
7.02767e-07
2.42924e-07
7.54502e-07
1.1159e-07
7.93007e-07
2.52272e-08
8.34684e-07
7.94509e-08
9.45526e-07
1.19234e-07
1.08037e-06
2.82498e-07
1.19092e-06
5.23579e-07
1.79521e-06
1.12574e-06
2.4748e-06
2.30396e-06
3.99599e-06
3.82497e-06
5.72649e-06
6.20505e-06
8.52702e-06
9.04706e-06
1.1385e-05
1.20934e-05
1.42137e-05
1.52053e-05
1.68813e-05
1.79013e-05
1.96335e-05
2.03909e-05
2.27548e-05
2.30787e-05
2.55389e-05
2.58176e-05
2.9322e-05
3.07852e-05
3.22125e-05
3.3989e-05
3.25071e-05
3.50505e-05
3.64571e-05
3.42558e-05
3.79743e-05
3.93994e-05
3.77937e-05
3.57584e-05
3.74341e-05
4.58514e-05
6.1823e-05
7.94643e-05
9.43693e-05
0.000105975
0.000115204
0.000122355
0.000128053
0.000132387
0.000135073
0.00013647
0.000138156
0.00013877
0.000137229
0.000134152
0.000130467
0.000124301
0.000112926
9.80347e-05
8.4448e-05
7.27618e-05
6.4188e-05
5.93788e-05
5.69475e-05
5.83673e-05
6.03317e-05
6.34503e-05
6.39511e-05
6.28395e-05
5.97466e-05
5.75914e-05
6.78245e-05
6.98194e-05
5.90628e-05
4.83846e-05
4.42383e-05
4.62086e-05
5.20423e-05
5.94988e-05
6.77524e-05
7.57018e-05
8.35211e-05
9.04024e-05
9.65703e-05
0.000101307
0.000105034
0.000107329
0.000108781
0.00010903
0.000108673
0.00010739
0.0001058
0.00010367
0.00010158
9.93018e-05
9.7246e-05
9.50875e-05
9.3059e-05
9.0774e-05
8.84071e-05
8.55753e-05
8.24736e-05
7.87761e-05
7.47353e-05
7.01308e-05
6.53536e-05
6.02578e-05
5.53434e-05
5.05182e-05
4.6203e-05
4.21881e-05
3.87005e-05
3.55381e-05
3.27722e-05
3.0121e-05
2.78155e-05
2.63564e-05
2.62418e-05
2.8174e-05
3.18368e-05
3.81349e-05
4.44826e-05
5.60942e-05
4.65161e-05
5.99443e-05
7.15043e-05
6.28411e-05
0.000114643
0.000148857
9.29277e-05
3.11694e-05
6.48593e-06
1.19016e-06
4.65027e-07
4.01823e-07
4.15032e-07
4.07914e-07
4.00038e-07
4.01283e-07
4.03744e-07
4.02528e-07
4.02654e-07
4.01517e-07
4.02077e-07
4.01589e-07
4.00362e-07
3.99146e-07
3.98346e-07
3.98518e-07
3.98259e-07
3.97978e-07
3.9841e-07
3.98415e-07
3.98919e-07
4.00613e-07
4.00675e-07
4.0163e-07
4.0151e-07
4.02199e-07
4.0276e-07
4.03118e-07
4.01869e-07
3.99958e-07
4.02963e-07
4.06727e-07
4.07649e-07
4.15615e-07
3.99833e-07
3.65868e-07
2.8598e-07
1.36993e-06
8.95309e-06
2.75485e-05
4.41463e-05
4.82895e-05
4.99322e-05
5.16963e-05
5.15614e-05
5.16278e-05
5.14912e-05
5.12824e-05
5.12117e-05
5.10332e-05
5.0994e-05
5.08724e-05
5.08425e-05
5.077e-05
5.07445e-05
5.07038e-05
5.06793e-05
5.06544e-05
5.06291e-05
5.06111e-05
5.05824e-05
5.0566e-05
5.05318e-05
5.05139e-05
5.04722e-05
5.04488e-05
5.0396e-05
5.03665e-05
5.03032e-05
5.02694e-05
5.01989e-05
5.01623e-05
5.00836e-05
5.00445e-05
4.99507e-05
4.98901e-05
4.9769e-05
4.96906e-05
4.95527e-05
4.9463e-05
4.93079e-05
4.92081e-05
4.90333e-05
4.89144e-05
4.87244e-05
4.85796e-05
4.83725e-05
4.82046e-05
4.7966e-05
4.77872e-05
4.75203e-05
4.73093e-05
4.7015e-05
4.67614e-05
4.64259e-05
4.61377e-05
4.57608e-05
4.54208e-05
4.49896e-05
4.45898e-05
4.41233e-05
4.36507e-05
4.31337e-05
4.26231e-05
4.20457e-05
4.1473e-05
4.08143e-05
4.01856e-05
3.94632e-05
3.87352e-05
3.79623e-05
3.71405e-05
3.62521e-05
3.5354e-05
3.43461e-05
3.33556e-05
3.23009e-05
3.12276e-05
3.01409e-05
2.9016e-05
2.77539e-05
2.65051e-05
2.53552e-05
2.42559e-05
2.29683e-05
2.17017e-05
2.03557e-05
1.91192e-05
1.78129e-05
1.6577e-05
1.52964e-05
1.407e-05
1.27782e-05
1.15869e-05
1.0326e-05
9.16054e-06
7.82751e-06
6.7328e-06
5.52643e-06
4.6699e-06
3.5816e-06
3.08333e-06
2.22393e-06
1.86956e-06
1.2209e-06
1.13585e-06
7.48649e-07
7.61901e-07
5.11582e-07
6.02263e-07
4.04594e-07
5.53417e-07
3.59518e-07
5.35404e-07
3.24163e-07
5.6914e-07
3.221e-07
5.77268e-07
3.55455e-07
5.34108e-07
3.86094e-07
5.09301e-07
3.867e-07
5.09407e-07
3.63768e-07
5.06685e-07
3.52037e-07
4.9963e-07
3.72477e-07
4.84871e-07
4.05919e-07
4.81971e-07
4.32875e-07
4.80033e-07
4.23012e-07
4.67737e-07
4.17854e-07
4.86632e-07
4.04552e-07
4.60131e-07
3.84179e-07
4.80643e-07
4.13202e-07
4.86207e-07
3.59458e-07
4.28801e-07
3.28646e-07
4.5838e-07
3.62894e-07
4.97504e-07
3.73834e-07
4.50227e-07
3.65565e-07
4.61644e-07
5.15618e-07
5.03665e-07
4.75869e-07
3.12356e-07
3.36514e-07
3.76319e-07
4.51105e-07
3.6879e-07
2.99455e-07
6.99096e-07
3.49497e-07
5.11971e-07
3.12094e-07
4.32885e-07
3.18867e-07
4.35148e-07
3.68134e-07
4.62301e-07
4.23952e-07
4.60616e-07
4.55438e-07
4.18127e-07
4.87031e-07
3.70425e-07
5.11905e-07
3.09999e-07
5.26351e-07
2.47436e-07
5.43538e-07
2.30676e-07
5.8575e-07
2.34348e-07
6.45766e-07
2.20647e-07
7.38848e-07
2.02986e-07
8.15133e-07
1.85756e-07
7.5619e-07
1.74244e-07
7.3459e-07
1.51037e-07
8.21267e-07
6.75111e-08
8.26302e-07
1.47375e-07
8.29043e-07
1.84251e-07
9.27093e-07
2.88133e-07
1.19672e-06
6.83473e-08
1.93789e-06
1.03621e-06
2.67268e-06
1.85118e-06
3.6668e-06
3.59845e-06
5.48013e-06
6.25051e-06
7.9355e-06
9.04015e-06
1.10261e-05
1.20247e-05
1.47768e-05
1.54083e-05