/*--------------------------------*- C++ -*----------------------------------*\
| =========                 |                                                 |
| \\      /  F ield         | OpenFOAM: The Open Source CFD Toolbox           |
|  \\    /   O peration     | Version:  v2006                                 |
|   \\  /    A nd           | Website:  www.openfoam.com                      |
|    \\/     M anipulation  |                                                 |
\*---------------------------------------------------------------------------*/
FoamFile
{
    version     2.0;
    format      ascii;
    class       volScalarField;
    location    "200";
    object      p;
}
// * * * * * * * * * * * * * * * * * * * * * * * * * * * * * * * * * * * * * //

dimensions      [1 -1 -2 0 0 0 0];


internalField   nonuniform List<scalar> 
93840
(
1.01628
0.990359
0.97586
0.962008
0.959833
0.951486
0.950778
0.959662
0.963993
0.975085
0.980581
0.985983
0.990467
0.996884
1.0046
1.00838
1.01583
1.01978
1.03013
1.02922
1.03222
1.03277
1.03388
1.0248
1.01478
1.00797
1.00476
1.01209
1.00102
1.00234
0.998617
1.01982
0.987972
1.00595
1.01238
1.02089
1.02449
1.03042
1.03397
1.03882
1.04146
1.04457
1.04702
1.04927
1.05241
1.05493
1.05759
1.05949
1.06224
1.06408
1.06647
1.06796
1.07074
1.0728
1.07458
1.07475
1.07453
1.07727
1.07974
1.08148
1.08176
1.08374
1.08444
1.0848
1.08564
1.08654
1.08659
1.08598
1.08638
1.08645
1.08651
1.08656
1.08621
1.08542
1.08507
1.08475
1.08371
1.08301
1.0816
1.08063
1.07935
1.07816
1.07671
1.07492
1.07287
1.07106
1.06876
1.06676
1.06453
1.06227
1.05934
1.05621
1.05313
1.04977
1.04616
1.04211
1.03796
1.03371
1.02932
1.02465
1.01994
1.0154
1.01082
1.00242
0.993676
0.991014
0.988966
0.982497
0.975384
0.968324
0.961449
0.954722
0.948432
0.940702
0.933967
0.927306
0.921681
0.914623
0.909508
0.904046
0.900969
0.896724
0.896752
0.89407
0.89853
0.90087
0.905065
0.912983
0.916034
0.922646
0.930998
0.937841
0.94327
0.952014
0.956514
0.964929
0.971343
0.978955
0.984871
0.992154
0.995647
1.00413
1.00919
1.01632
1.02002
1.02779
1.03116
1.0384
1.04303
1.0517
1.05588
1.06427
1.0688
1.07762
1.08333
1.09183
1.09825
1.1071
1.1143
1.12392
1.1318
1.13982
1.14809
1.15732
1.16698
1.17739
1.18827
1.20159
1.21196
1.22507
1.23838
1.25372
1.26934
1.28371
1.301
1.32081
1.34121
1.36427
1.38253
1.40696
1.40898
1.40534
1.35317
1.25844
1.11096
0.963066
0.809482
0.715485
0.690661
0.708792
0.634665
0.578026
0.545463
0.514026
0.49902
0.485683
0.48254
0.478362
0.470715
0.473493
0.474998
0.475761
0.47739
0.479853
0.483065
0.486378
0.488477
0.490333
0.493837
0.495435
0.496016
0.496773
0.497187
0.496346
0.497932
0.499394
0.500055
0.500296
0.500037
0.498986
0.497481
0.49502
0.496226
0.496622
0.497082
0.49775
0.498357
0.499151
0.500254
0.501462
0.500137
0.494612
0.493405
0.488846
0.487977
0.486924
0.485996
0.484936
0.483708
0.482556
0.482301
0.480778
0.47903
0.477284
0.47467
0.472668
0.470209
0.464056
0.467383
0.464658
0.455799
0.454697
0.454307
0.446318
0.442978
0.44229
0.433576
0.429028
0.423805
0.430181
0.45862
0.565004
0.688455
0.724458
0.736515
0.754046
0.768005
0.784031
0.796269
0.810489
0.822641
0.836105
0.846759
0.857879
0.867535
0.876952
0.884715
0.891884
0.897856
0.903554
0.908445
0.913252
0.917515
0.921845
0.925628
0.929565
0.932795
0.936311
0.93908
0.942249
0.945052
0.947518
0.949297
0.950994
0.952543
0.954469
0.956328
0.958377
0.960331
0.962293
0.964202
0.966013
0.967865
0.969482
0.971271
0.97266
0.97437
0.975489
0.9771
0.978011
0.979532
0.980221
0.981676
0.982147
0.983519
0.983736
0.985088
0.985096
0.986465
0.98635
0.987779
0.98749
0.988843
0.98821
0.989895
0.989488
0.991072
0.990261
0.991966
0.990841
0.993936
0.992727
0.996553
0.993366
1.00154
0.991065
0.984229
1.00534
0.986395
1.00163
1.01502
1.01048
1.01156
1.01965
1.0264
1.03569
1.03327
1.03289
1.02898
1.03013
1.02052
1.01578
1.00845
1.00471
0.996606
0.990665
0.985696
0.981226
0.974655
0.963734
0.95946
0.949975
0.951648
0.960178
0.961859
0.97611
0.99001
1.01563
1.01554
0.990065
0.976004
0.961775
0.960239
0.951627
0.949983
0.959494
0.963777
0.974744
0.981348
0.985724
0.990665
0.996861
1.00481
1.00823
1.01614
1.02009
1.03001
1.02908
1.03276
1.03294
1.03466
1.02559
1.01971
1.0124
1.00919
1.01132
1.00294
0.993791
1.00555
0.996144
1.00554
1.00843
1.01477
1.01991
1.02457
1.02954
1.03336
1.03776
1.04043
1.04381
1.04614
1.04882
1.05169
1.05428
1.05676
1.05887
1.06164
1.06345
1.0658
1.06757
1.0701
1.07175
1.07381
1.07452
1.07452
1.07693
1.07913
1.08086
1.08142
1.08306
1.08396
1.08436
1.08531
1.08603
1.08627
1.0857
1.08611
1.08611
1.08625
1.08626
1.0859
1.08524
1.08485
1.0845
1.08348
1.0828
1.08145
1.08046
1.07918
1.07798
1.07653
1.07478
1.07274
1.07094
1.06865
1.06665
1.06439
1.06213
1.05923
1.05613
1.05305
1.0497
1.04609
1.04206
1.03792
1.03367
1.02929
1.02463
1.01994
1.01536
1.01074
1.00252
0.993993
0.99118
0.988903
0.982509
0.975523
0.968506
0.961663
0.954951
0.948666
0.941007
0.934357
0.927731
0.922107
0.915139
0.910087
0.904691
0.901589
0.89739
0.897553
0.894805
0.899739
0.901732
0.905799
0.913198
0.916838
0.923176
0.931747
0.938441
0.943832
0.952835
0.957275
0.965492
0.972087
0.979518
0.985165
0.992686
0.996096
1.00461
1.00969
1.01701
1.02076
1.02864
1.03182
1.03937
1.04364
1.0524
1.05647
1.06516
1.0697
1.07853
1.08444
1.0926
1.09935
1.10828
1.11578
1.12539
1.13348
1.14156
1.15001
1.15906
1.16915
1.18
1.19092
1.20434
1.21508
1.2285
1.24226
1.25791
1.27382
1.28786
1.30527
1.32296
1.3419
1.36105
1.37776
1.39478
1.39411
1.38941
1.34635
1.2893
1.18915
1.06856
0.940486
0.827975
0.766638
0.759858
0.690106
0.62166
0.582164
0.547811
0.527503
0.50724
0.498652
0.492047
0.482359
0.48114
0.481378
0.482112
0.482887
0.484338
0.486681
0.489422
0.491268
0.492898
0.496339
0.497645
0.498276
0.498947
0.498881
0.498559
0.499265
0.500486
0.501403
0.501189
0.50117
0.500433
0.498918
0.496116
0.496919
0.497408
0.497489
0.498156
0.498808
0.499628
0.5007
0.501983
0.500628
0.495408
0.49404
0.489513
0.488479
0.487496
0.486216
0.484972
0.484274
0.483151
0.48226
0.481225
0.479827
0.477567
0.474607
0.472691
0.470507
0.464518
0.467744
0.465138
0.456273
0.455042
0.45462
0.44686
0.44346
0.44244
0.434015
0.429603
0.4243
0.430682
0.458884
0.564486
0.692365
0.725775
0.736849
0.754155
0.768041
0.784059
0.796252
0.810436
0.822583
0.836067
0.846714
0.857822
0.867486
0.87693
0.884707
0.891884
0.897856
0.903551
0.908438
0.913242
0.917504
0.921841
0.925626
0.929573
0.932798
0.936307
0.939068
0.942246
0.945088
0.947563
0.949335
0.951016
0.952545
0.954459
0.956318
0.958371
0.960328
0.962294
0.964209
0.966025
0.967883
0.969504
0.971295
0.972684
0.974397
0.975518
0.977132
0.978043
0.979565
0.980253
0.981714
0.982187
0.983559
0.983766
0.985121
0.985148
0.986557
0.986463
0.987881
0.987587
0.988947
0.988298
0.989837
0.989393
0.991065
0.990005
0.992
0.990524
0.992532
0.991832
0.99404
0.99289
0.998038
0.981233
1.00259
0.994481
0.99246
0.997466
1.00896
1.00084
1.00542
1.01379
1.0247
1.03428
1.03237
1.03219
1.02911
1.03022
1.01949
1.01606
1.00842
1.00444
0.996514
0.990309
0.985784
0.980556
0.975022
0.963935
0.959633
0.950735
0.951451
0.959836
0.961908
0.975858
0.990291
1.01627
1.01629
0.990466
0.975936
0.962007
0.95986
0.951548
0.950877
0.959654
0.964006
0.975112
0.980641
0.986079
0.990454
0.99712
1.00482
1.00807
1.01662
1.01975
1.02957
1.0292
1.03212
1.03305
1.03308
1.0247
1.01659
1.01105
1.00944
1.01299
1.00891
1.00591
1.00957
1.01084
1.00199
1.01768
1.01384
1.02411
1.0243
1.03129
1.03331
1.03838
1.04044
1.04391
1.04615
1.04882
1.0515
1.05405
1.05649
1.05848
1.06141
1.0632
1.06548
1.0675
1.06975
1.07157
1.07377
1.07446
1.07435
1.07638
1.079
1.08056
1.08088
1.08259
1.08398
1.08411
1.08501
1.0859
1.08614
1.08558
1.08588
1.0859
1.08611
1.08612
1.08573
1.08508
1.08462
1.08433
1.08343
1.08268
1.08133
1.08036
1.07907
1.07786
1.07642
1.07468
1.07265
1.07085
1.06857
1.06657
1.06431
1.06205
1.05915
1.05607
1.05299
1.04964
1.04604
1.04202
1.03789
1.03364
1.02927
1.02462
1.01994
1.01536
1.01071
1.00254
0.994135
0.991281
0.988913
0.982536
0.975609
0.968616
0.961797
0.955105
0.948814
0.941196
0.934588
0.92799
0.922385
0.91545
0.910475
0.905065
0.902026
0.897888
0.897799
0.895507
0.899713
0.901892
0.906768
0.914336
0.916864
0.923938
0.932302
0.938795
0.943915
0.952768
0.957154
0.96559
0.971805
0.979658
0.985843
0.992748
0.996908
1.00471
1.01021
1.01669
1.021
1.02838
1.03236
1.03954
1.04432
1.05313
1.0573
1.06558
1.07008
1.07917
1.0848
1.09396
1.10027
1.10926
1.11621
1.12563
1.13369
1.14232
1.15111
1.16055
1.1703
1.18024
1.19171
1.20465
1.21585
1.22951
1.24245
1.2581
1.27331
1.2888
1.3061
1.32552
1.34502
1.36297
1.38234
1.4018
1.39948
1.40281
1.35425
1.2966
1.19049
1.07417
0.940702
0.83972
0.779295
0.765875
0.696495
0.637766
0.598934
0.558381
0.535461
0.511958
0.504438
0.497406
0.48652
0.487859
0.483671
0.484865
0.486417
0.487924
0.489401
0.491455
0.493512
0.494993
0.497927
0.49892
0.499735
0.500303
0.500174
0.499563
0.500403
0.501311
0.5021
0.502354
0.502063
0.501232
0.499443
0.496679
0.497716
0.497624
0.49814
0.498774
0.499341
0.499996
0.501031
0.50218
0.50114
0.495728
0.494604
0.490018
0.488737
0.48741
0.486911
0.485824
0.484559
0.483035
0.483056
0.48155
0.479417
0.478249
0.475619
0.473334
0.470864
0.464662
0.467549
0.465767
0.456481
0.455225
0.45532
0.446858
0.443795
0.443449
0.434586
0.429802
0.42468
0.430268
0.457773
0.563231
0.689445
0.725179
0.736837
0.754199
0.768078
0.784081
0.796272
0.810453
0.822592
0.836066
0.84672
0.857832
0.867494
0.876933
0.884712
0.891883
0.897855
0.90356
0.908453
0.913261
0.917523
0.921853
0.925633
0.929566
0.932801
0.936321
0.939096
0.942259
0.945045
0.947504
0.949291
0.951002
0.952573
0.954505
0.956356
0.958394
0.960338
0.962296
0.964204
0.966016
0.96787
0.969491
0.971281
0.972673
0.974385
0.97551
0.977123
0.978036
0.979558
0.980252
0.981709
0.982186
0.983553
0.983765
0.985106
0.985134
0.986508
0.986422
0.987831
0.987567
0.988905
0.988245
0.989785
0.989258
0.991035
0.98984
0.991955
0.990744
0.992967
0.992076
0.995858
0.992482
0.997604
0.993093
0.993055
1.00177
0.989319
1.0036
1.01215
1.00882
1.01008
1.01849
1.02676
1.03705
1.03335
1.03312
1.02916
1.03051
1.02037
1.01624
1.00847
1.00462
0.996462
0.990818
0.985677
0.981177
0.974529
0.963667
0.959429
0.950011
0.951659
0.960233
0.961809
0.975985
0.989934
1.01568
1.01558
0.990157
0.975929
0.961623
0.960082
0.951583
0.949953
0.959545
0.96383
0.974759
0.981455
0.985887
0.991081
0.997007
1.00477
1.00798
1.01644
1.01995
1.02964
1.02923
1.03272
1.0329
1.03375
1.02557
1.02018
1.01414
1.01151
1.01221
1.0101
1.00259
1.0085
1.00847
1.01066
1.01339
1.01836
1.02213
1.02628
1.03016
1.03365
1.0374
1.04016
1.04325
1.04583
1.04834
1.05103
1.05345
1.05597
1.05791
1.06095
1.06271
1.065
1.06712
1.06911
1.07081
1.07335
1.07433
1.07435
1.07586
1.0785
1.0801
1.0805
1.08167
1.08382
1.08373
1.08467
1.08536
1.08593
1.08532
1.08565
1.0856
1.08589
1.08585
1.08541
1.08499
1.08441
1.08405
1.08319
1.08249
1.08125
1.08017
1.07892
1.07769
1.07626
1.07455
1.07253
1.07073
1.06846
1.06646
1.06419
1.06192
1.05905
1.05599
1.05292
1.04958
1.04598
1.04197
1.03785
1.0336
1.02924
1.02461
1.01995
1.01534
1.01066
1.00264
0.994398
0.991439
0.98888
0.98258
0.975758
0.968804
0.962014
0.955339
0.949063
0.941494
0.934969
0.928401
0.922778
0.915943
0.910981
0.905648
0.902468
0.898398
0.898843
0.895889
0.900855
0.903088
0.907135
0.914009
0.917522
0.92421
0.932888
0.939488
0.944696
0.953911
0.958268
0.966371
0.972844
0.980436
0.985574
0.993356
0.996596
1.00514
1.01025
1.0177
1.02187
1.02949
1.03292
1.04046
1.04426
1.05354
1.05745
1.06651
1.07081
1.07977
1.08567
1.09394
1.10081
1.1098
1.11764
1.12702
1.13554
1.14361
1.15193
1.16138
1.17124
1.18279
1.19346
1.20661
1.21754
1.23111
1.24511
1.26048
1.27595
1.29067
1.30809
1.32594
1.34328
1.3637
1.37538
1.39151
1.39119
1.38587
1.35495
1.30082
1.22023
1.11895
1.00861
0.903121
0.829884
0.802985
0.735655
0.667226
0.623599
0.58308
0.557994
0.530437
0.517753
0.509432
0.49656
0.491812
0.490469
0.489326
0.490299
0.491163
0.492081
0.494187
0.495804
0.497253
0.499945
0.500764
0.501581
0.501659
0.501786
0.501711
0.501693
0.502426
0.503391
0.503308
0.503489
0.502464
0.50105
0.497804
0.498538
0.49865
0.498409
0.499112
0.499783
0.500515
0.501416
0.502877
0.501511
0.496287
0.495352
0.490875
0.48919
0.488073
0.48695
0.48588
0.485303
0.483595
0.482816
0.482231
0.480528
0.478282
0.475221
0.473163
0.471182
0.465263
0.468036
0.46617
0.456994
0.45555
0.455224
0.447595
0.44429
0.442797
0.434615
0.430579
0.425079
0.430655
0.456953
0.562752
0.689002
0.726985
0.737892
0.754646
0.768272
0.784183
0.7963
0.810417
0.822509
0.835987
0.846649
0.857752
0.8674
0.876857
0.884665
0.89186
0.897838
0.903548
0.908444
0.913256
0.917516
0.921853
0.925633
0.92957
0.932802
0.936322
0.939108
0.942271
0.945052
0.947516
0.949314
0.951032
0.9526
0.954529
0.956382
0.958417
0.960359
0.962311
0.964219
0.966027
0.967885
0.969505
0.9713
0.972692
0.974411
0.975536
0.977155
0.978063
0.979593
0.980281
0.981746
0.982217
0.983608
0.983823
0.985177
0.985161
0.986516
0.986384
0.987851
0.987593
0.988972
0.988267
0.989758
0.989236
0.990712
0.989885
0.991673
0.98998
0.992199
0.990995
0.994221
0.992073
0.996204
0.99184
0.996542
0.994316
0.99514
1.00041
1.00652
1.00024
1.00455
1.01293
1.02576
1.0349
1.0322
1.03218
1.02911
1.03054
1.01968
1.01595
1.00855
1.00409
0.996415
0.990231
0.985789
0.980528
0.975014
0.963866
0.959572
0.950693
0.951406
0.959822
0.961958
0.975871
0.990231
1.01621
1.0162
0.990511
0.975931
0.962121
0.959878
0.951587
0.950969
0.959635
0.963996
0.975043
0.980779
0.985883
0.990971
0.99696
1.00492
1.00789
1.01698
1.01966
1.02987
1.029
1.03223
1.03304
1.03252
1.02464
1.01796
1.01335
1.01164
1.01397
1.01257
1.01194
1.01143
1.01425
1.01132
1.01961
1.01816
1.02611
1.02597
1.03246
1.03338
1.03858
1.03997
1.04372
1.04572
1.04852
1.05075
1.05337
1.05573
1.0576
1.06077
1.06251
1.06473
1.067
1.06873
1.07051
1.07321
1.07417
1.07422
1.07532
1.07836
1.07969
1.07991
1.08133
1.08366
1.08353
1.08431
1.08518
1.08564
1.08516
1.08537
1.08543
1.08572
1.08563
1.08518
1.08476
1.08419
1.08383
1.08309
1.08236
1.08107
1.08003
1.07875
1.07755
1.0761
1.0744
1.07241
1.07061
1.06836
1.06635
1.06408
1.06181
1.05895
1.0559
1.05283
1.0495
1.04591
1.04192
1.0378
1.03357
1.02921
1.02459
1.01994
1.01533
1.01062
1.00266
0.994584
0.99157
0.988905
0.982611
0.975869
0.968945
0.96219
0.955545
0.949254
0.941751
0.935277
0.928744
0.923154
0.916333
0.911492
0.906123
0.903076
0.89908
0.899215
0.897108
0.901574
0.903072
0.907997
0.915259
0.918114
0.925432
0.933323
0.939668
0.945077
0.953583
0.957678
0.966466
0.972543
0.980193
0.98691
0.993398
0.997943
1.00542
1.01111
1.01748
1.02179
1.02939
1.03338
1.04082
1.0457
1.05433
1.05872
1.06671
1.07128
1.08047
1.08611
1.09531
1.10179
1.11094
1.11799
1.12715
1.13527
1.14416
1.15336
1.16242
1.17269
1.18223
1.19413
1.20632
1.21774
1.23166
1.24448
1.26021
1.27498
1.29047
1.30785
1.32567
1.34327
1.35938
1.37603
1.39087
1.38597
1.38232
1.34447
1.30046
1.21489
1.11898
1.00417
0.909236
0.837311
0.805765
0.737912
0.679314
0.639258
0.593066
0.564687
0.534515
0.52392
0.514072
0.502017
0.499812
0.492889
0.492894
0.493989
0.494062
0.495443
0.496111
0.498459
0.499181
0.501746
0.502537
0.503169
0.503287
0.503061
0.502477
0.503394
0.503551
0.504322
0.503994
0.504011
0.503583
0.501889
0.498476
0.499092
0.499076
0.499194
0.499774
0.50034
0.501013
0.50187
0.503069
0.502158
0.497343
0.495882
0.491279
0.489783
0.488312
0.487633
0.486219
0.485414
0.484176
0.483492
0.482196
0.480523
0.479283
0.476049
0.473924
0.471731
0.465603
0.468017
0.467026
0.457285
0.455828
0.456423
0.447502
0.444781
0.444707
0.435847
0.430777
0.425609
0.430374
0.455349
0.55958
0.686303
0.726502
0.738273
0.754861
0.768381
0.784249
0.796375
0.810488
0.822555
0.836006
0.846674
0.857775
0.867405
0.876837
0.884646
0.891844
0.89783
0.903556
0.908465
0.913287
0.917549
0.921876
0.925649
0.929565
0.932805
0.936339
0.939157
0.942307
0.944993
0.947429
0.949258
0.951026
0.952646
0.954599
0.956451
0.958477
0.960402
0.962344
0.964236
0.966036
0.967879
0.969497
0.971282
0.972678
0.974389
0.975523
0.977131
0.978049
0.979571
0.980271
0.981723
0.982209
0.983579
0.98381
0.98513
0.985139
0.986446
0.98633
0.987733
0.987522
0.988875
0.988262
0.98973
0.989279
0.990787
0.990204
0.99205
0.990187
0.992608
0.991551
0.994187
0.992954
0.995683
0.993739
0.996235
0.998079
0.995813
1.0033
1.009
1.00535
1.0087
1.01728
1.02788
1.03728
1.0329
1.03324
1.02908
1.03057
1.02036
1.01585
1.00868
1.00448
0.996186
0.990564
0.985549
0.981064
0.974595
0.963559
0.959385
0.950065
0.951666
0.960318
0.961709
0.976058
0.989877
1.01565
1.01568
0.990242
0.976042
0.961661
0.96019
0.95157
0.949934
0.959585
0.963883
0.974728
0.981393
0.985756
0.990846
0.997154
1.00462
1.00776
1.01686
1.01958
1.02994
1.02883
1.0328
1.03285
1.03282
1.02556
1.02085
1.01586
1.01368
1.01369
1.0129
1.00941
1.01282
1.01273
1.01593
1.01777
1.02218
1.02412
1.02829
1.03078
1.03452
1.03736
1.04029
1.04281
1.04567
1.04795
1.05039
1.05284
1.05524
1.05709
1.06034
1.06205
1.06422
1.06672
1.06808
1.06975
1.07273
1.07392
1.07405
1.07485
1.07797
1.07907
1.07933
1.08052
1.08343
1.08312
1.08384
1.0847
1.08537
1.08484
1.08503
1.08518
1.08545
1.08532
1.08485
1.0846
1.0839
1.08348
1.08281
1.08213
1.08094
1.0798
1.07857
1.07733
1.07591
1.07424
1.07224
1.07045
1.0682
1.0662
1.06392
1.06163
1.0588
1.05578
1.05273
1.04941
1.04582
1.04184
1.03774
1.0335
1.02915
1.02456
1.01993
1.01531
1.01057
1.00275
0.994839
0.991756
0.988879
0.982674
0.97604
0.969163
0.962444
0.955823
0.949556
0.942094
0.935718
0.929217
0.923597
0.916916
0.912056
0.906822
0.90365
0.899824
0.900284
0.897991
0.901771
0.904422
0.9086
0.914889
0.918603
0.925442
0.933913
0.940505
0.945994
0.955068
0.959086
0.967666
0.973619
0.981276
0.986098
0.994132
0.996795
1.00587
1.0107
1.0186
1.02254
1.03067
1.03366
1.04168
1.04511
1.05465
1.0587
1.06751
1.07214
1.08106
1.08698
1.09546
1.10227
1.11126
1.11937
1.12884
1.13716
1.14574
1.15386
1.16395
1.17307
1.18518
1.19556
1.20816
1.21923
1.23288
1.24665
1.26181
1.27718
1.29176
1.30796
1.3245
1.3402
1.35917
1.368
1.38523
1.38025
1.37711
1.34567
1.30013
1.23596
1.14931
1.0555
0.958291
0.882093
0.840404
0.775025
0.711488
0.663862
0.617611
0.587966
0.55738
0.538507
0.525859
0.512707
0.504869
0.500166
0.497504
0.497565
0.497688
0.498146
0.499562
0.500564
0.501546
0.503875
0.50441
0.504706
0.505036
0.505026
0.504727
0.504637
0.505143
0.505743
0.505565
0.505425
0.504831
0.503618
0.499548
0.500082
0.499953
0.499653
0.500493
0.501065
0.50178
0.502273
0.503862
0.502647
0.497544
0.497277
0.49239
0.49004
0.489063
0.488129
0.487016
0.485953
0.484355
0.484332
0.482933
0.480748
0.479517
0.476535
0.473889
0.47191
0.466135
0.468352
0.467549
0.45788
0.456177
0.455988
0.448497
0.445181
0.443273
0.435419
0.431784
0.426067
0.430375
0.45365
0.555991
0.684436
0.728085
0.739951
0.755721
0.768861
0.784505
0.796511
0.810531
0.822529
0.835951
0.846622
0.857709
0.867311
0.876734
0.884566
0.891795
0.8978
0.90354
0.908459
0.913293
0.917559
0.921889
0.925659
0.929571
0.932807
0.936341
0.939187
0.942343
0.944991
0.947413
0.949266
0.951062
0.952695
0.954651
0.95651
0.958535
0.960462
0.962394
0.964283
0.966071
0.967914
0.969519
0.971307
0.972693
0.974413
0.975539
0.977157
0.978061
0.979597
0.980285
0.981756
0.982221
0.983614
0.983817
0.985172
0.985156
0.986503
0.98632
0.987737
0.987435
0.988829
0.988128
0.989634
0.988843
0.990449
0.989994
0.991697
0.99043
0.992217
0.990568
0.993245
0.992482
0.995355
0.99337
0.996653
0.997089
0.997939
1.00171
1.00523
1.00095
1.00486
1.01368
1.02637
1.03496
1.03206
1.03227
1.02936
1.03038
1.01982
1.01592
1.0088
1.00379
0.996133
0.990354
0.985777
0.980375
0.974948
0.963832
0.959537
0.950659
0.951382
0.95977
0.962093
0.975914
0.990162
1.01608
1.01601
0.990504
0.975956
0.962084
0.959823
0.951643
0.950986
0.959629
0.964038
0.975046
0.980819
0.986299
0.990878
0.997185
1.00489
1.00776
1.01704
1.01958
1.02955
1.02899
1.03228
1.03304
1.0319
1.02478
1.01939
1.01545
1.01438
1.01597
1.01519
1.01508
1.01486
1.01702
1.01713
1.02228
1.02217
1.02777
1.02792
1.03337
1.0341
1.03875
1.04001
1.04346
1.04544
1.04822
1.05004
1.05286
1.05505
1.05693
1.06019
1.06195
1.06407
1.06649
1.06779
1.06914
1.07222
1.07353
1.07399
1.07462
1.07771
1.07864
1.07889
1.08043
1.08289
1.08298
1.08346
1.08446
1.08486
1.08468
1.08476
1.08504
1.08522
1.08501
1.08457
1.08432
1.08374
1.08321
1.0826
1.082
1.0807
1.07962
1.07835
1.07714
1.07571
1.07405
1.07209
1.0703
1.06807
1.06606
1.06379
1.06151
1.05868
1.05567
1.05262
1.0493
1.04573
1.04177
1.03768
1.03346
1.02912
1.02454
1.01992
1.01531
1.01052
1.00277
0.995067
0.991914
0.988922
0.982714
0.976177
0.969335
0.96266
0.956081
0.949791
0.942418
0.936105
0.929649
0.92408
0.917379
0.912668
0.907367
0.904381
0.900665
0.901033
0.898348
0.903468
0.904734
0.909226
0.916445
0.91927
0.927114
0.934065
0.940666
0.946489
0.954257
0.958489
0.967463
0.973355
0.980795
0.987924
0.993986
0.998832
1.0065
1.01165
1.01869
1.02241
1.03041
1.03435
1.04202
1.04701
1.05535
1.05998
1.06783
1.0725
1.08162
1.08753
1.09676
1.10335
1.11235
1.1201
1.12848
1.13696
1.14561
1.15529
1.16449
1.17441
1.18427
1.19565
1.20773
1.21922
1.23274
1.24589
1.26101
1.27559
1.29045
1.30748
1.32334
1.33904
1.35359
1.36704
1.38151
1.37127
1.36933
1.33613
1.29882
1.22704
1.14733
1.04871
0.960354
0.886175
0.841246
0.77723
0.72091
0.675771
0.62759
0.594461
0.560657
0.544564
0.531785
0.51772
0.514134
0.502289
0.50199
0.502304
0.501231
0.501438
0.50165
0.503361
0.503742
0.505755
0.505947
0.506934
0.506309
0.505943
0.506046
0.506284
0.506134
0.506513
0.506618
0.506282
0.505703
0.504763
0.500874
0.500717
0.500621
0.500498
0.501042
0.501633
0.502244
0.502775
0.504265
0.503463
0.498925
0.497232
0.493122
0.491092
0.489093
0.488344
0.48734
0.486413
0.485131
0.484352
0.483351
0.481847
0.480059
0.476609
0.47477
0.472883
0.466671
0.468717
0.468308
0.458338
0.456624
0.45759
0.44842
0.446086
0.445995
0.437198
0.431948
0.426658
0.430107
0.451603
0.551493
0.681897
0.728095
0.740574
0.756213
0.769085
0.784652
0.796673
0.810682
0.822633
0.836005
0.846669
0.857742
0.867313
0.876694
0.884515
0.891753
0.897775
0.903539
0.908477
0.913329
0.917603
0.921924
0.925684
0.929575
0.932815
0.936354
0.939242
0.942391
0.944941
0.947325
0.94921
0.951066
0.952753
0.954734
0.956597
0.958623
0.960536
0.962463
0.964334
0.966113
0.967932
0.969535
0.971298
0.972692
0.974389
0.975531
0.977126
0.978045
0.979558
0.980271
0.981711
0.982208
0.983562
0.983806
0.985099
0.985133
0.9864
0.986295
0.987623
0.987428
0.988694
0.988159
0.989625
0.988971
0.9906
0.990107
0.991651
0.990968
0.99259
0.99108
0.993453
0.993288
0.995189
0.994167
0.997096
0.998017
0.997919
1.00252
1.00557
1.00433
1.00816
1.0178
1.0274
1.03672
1.03247
1.03336
1.02909
1.03089
1.01998
1.01588
1.00893
1.00412
0.995913
0.990526
0.985369
0.980947
0.974611
0.963518
0.959363
0.950072
0.951663
0.960355
0.961463
0.976027
0.989833
1.0157
1.01579
0.990286
0.975916
0.961548
0.960139
0.951538
0.949949
0.95957
0.963938
0.974684
0.981594
0.985957
0.99139
0.996816
1.00519
1.00717
1.01706
1.01955
1.02958
1.02887
1.03283
1.03276
1.03188
1.02571
1.02161
1.01749
1.01566
1.01576
1.01567
1.01379
1.01698
1.01634
1.02044
1.02079
1.02517
1.02608
1.0302
1.03199
1.03532
1.03762
1.0405
1.04259
1.04541
1.04757
1.04989
1.05236
1.05477
1.05656
1.05983
1.0615
1.06361
1.06618
1.06735
1.06828
1.07138
1.07303
1.07364
1.07446
1.07734
1.07782
1.07829
1.08
1.08228
1.08246
1.0831
1.08409
1.08444
1.08424
1.08432
1.08477
1.08488
1.08465
1.08426
1.08395
1.08341
1.08289
1.08231
1.08171
1.08048
1.07936
1.07811
1.07689
1.07547
1.07385
1.07187
1.0701
1.06787
1.06587
1.06358
1.06128
1.05849
1.05552
1.05248
1.04918
1.04561
1.04166
1.03758
1.03336
1.02903
1.02449
1.0199
1.01529
1.01048
1.00285
0.995312
0.992126
0.988906
0.982794
0.976369
0.969582
0.96295
0.956405
0.950154
0.942815
0.936611
0.930174
0.924548
0.918013
0.913269
0.908186
0.905017
0.901432
0.901923
0.900048
0.903957
0.905638
0.910241
0.915828
0.919901
0.926552
0.935205
0.941315
0.947292
0.956168
0.960064
0.968819
0.974503
0.982288
0.986797
0.99494
0.997437
1.00663
1.01139
1.01955
1.02325
1.03194
1.03448
1.04295
1.04647
1.05566
1.06025
1.06866
1.07372
1.08233
1.08849
1.09714
1.10377
1.1126
1.12077
1.13037
1.13844
1.14759
1.1558
1.16621
1.17489
1.18719
1.19719
1.20935
1.22065
1.23425
1.24712
1.26269
1.27676
1.29091
1.30645
1.32139
1.33595
1.35144
1.35918
1.37268
1.36445
1.36564
1.33391
1.29643
1.2411
1.16804
1.08912
0.998812
0.92555
0.873972
0.811244
0.749294
0.699047
0.650704
0.616698
0.584709
0.560289
0.54307
0.529948
0.518116
0.509645
0.507038
0.505131
0.504872
0.504957
0.504096
0.505072
0.50613
0.50786
0.508155
0.508229
0.508246
0.508091
0.507446
0.507933
0.508049
0.507343
0.507625
0.50775
0.507406
0.505561
0.501858
0.501647
0.501296
0.501145
0.501837
0.502208
0.502971
0.503575
0.504743
0.503973
0.499621
0.499108
0.493692
0.491273
0.490546
0.48911
0.487369
0.486552
0.486002
0.485569
0.48326
0.481371
0.481205
0.477754
0.474464
0.472749
0.467332
0.468932
0.469065
0.458907
0.456985
0.456926
0.449727
0.446123
0.443952
0.436514
0.433213
0.427183
0.429936
0.449407
0.546312
0.679429
0.729384
0.742765
0.757618
0.76996
0.785128
0.796966
0.810843
0.822703
0.836003
0.846656
0.857704
0.867236
0.876584
0.884411
0.891674
0.897721
0.903511
0.908468
0.91334
0.917625
0.92195
0.925703
0.929586
0.932819
0.936354
0.939277
0.942437
0.944945
0.947303
0.949214
0.951108
0.952819
0.954805
0.956678
0.958703
0.960624
0.962543
0.964416
0.966177
0.967995
0.969575
0.971342
0.972713
0.974421
0.975543
0.977154
0.978044
0.97958
0.980263
0.981737
0.982197
0.9836
0.983795
0.985135
0.985086
0.986403
0.986192
0.987621
0.987333
0.988711
0.988063
0.989535
0.988731
0.990307
0.989405
0.991009
0.990146
0.992011
0.991048
0.992935
0.992399
0.994879
0.994405
0.997289
0.997349
0.999717
1.00127
1.00508
1.00345
1.0066
1.01457
1.02585
1.03442
1.03196
1.03247
1.02929
1.03071
1.01932
1.01596
1.00907
1.00344
0.995971
0.990264
0.985789
0.98032
0.97484
0.963774
0.959566
0.950623
0.95136
0.959716
0.962167
0.975902
0.990094
1.01611
1.01599
0.990585
0.976008
0.962079
0.959984
0.951657
0.95101
0.959636
0.964099
0.975015
0.980927
0.986156
0.991197
0.99676
1.00512
1.00727
1.01743
1.01939
1.02967
1.02879
1.03305
1.03247
1.03138
1.02527
1.02094
1.01754
1.01644
1.01782
1.01771
1.01755
1.01863
1.02038
1.02111
1.02464
1.02516
1.02938
1.03012
1.03425
1.03516
1.03909
1.04029
1.04342
1.04509
1.04803
1.04956
1.0524
1.05457
1.05639
1.05953
1.06137
1.06349
1.06584
1.0672
1.06751
1.0705
1.07247
1.07341
1.07456
1.0769
1.07761
1.07798
1.07998
1.08148
1.08214
1.08266
1.08382
1.08378
1.08407
1.08405
1.08454
1.08455
1.08429
1.08399
1.08359
1.08323
1.08262
1.08205
1.08153
1.08016
1.07913
1.07786
1.07666
1.07523
1.07362
1.07169
1.0699
1.06771
1.0657
1.06342
1.06114
1.05834
1.05538
1.05235
1.04905
1.04549
1.04157
1.03751
1.03331
1.029
1.02447
1.01989
1.01528
1.01042
1.00287
0.995574
0.992308
0.988969
0.982846
0.976532
0.969781
0.963203
0.956711
0.950432
0.943193
0.937057
0.930723
0.925072
0.918689
0.913856
0.909006
0.90564
0.902471
0.902455
0.900592
0.904604
0.906416
0.910887
0.918045
0.919861
0.928159
0.935263
0.941588
0.94736
0.95512
0.959633
0.968126
0.974314
0.981658
0.988883
0.994552
0.999909
1.00758
1.01231
1.01977
1.0233
1.03109
1.03547
1.04316
1.04789
1.05627
1.06102
1.06894
1.07368
1.08305
1.08901
1.09872
1.105
1.114
1.1221
1.13022
1.1385
1.14716
1.15684
1.16641
1.17582
1.18665
1.19724
1.20912
1.22088
1.23385
1.2469
1.2609
1.27547
1.28986
1.30505
1.31903
1.33297
1.3463
1.35763
1.36901
1.35761
1.35655
1.32433
1.29218
1.23131
1.16466
1.07818
0.999181
0.924244
0.873608
0.812716
0.757287
0.709697
0.659932
0.624854
0.587755
0.565883
0.547734
0.533739
0.527521
0.511914
0.512009
0.509268
0.508489
0.508812
0.508208
0.507662
0.508847
0.509326
0.510601
0.509957
0.509687
0.509692
0.509903
0.509431
0.508587
0.508711
0.508942
0.508639
0.508505
0.507536
0.502809
0.502544
0.502514
0.502111
0.502601
0.502806
0.50359
0.504114
0.505117
0.505081
0.50041
0.49898
0.495035
0.492292
0.489785
0.48951
0.488595
0.487638
0.485838
0.485866
0.484621
0.482516
0.481012
0.478259
0.47593
0.474193
0.467693
0.469423
0.469511
0.459705
0.457681
0.458736
0.449762
0.447609
0.44712
0.438439
0.433463
0.427856
0.429768
0.44698
0.540322
0.676474
0.73044
0.743841
0.758574
0.77038
0.785412
0.797263
0.81111
0.822893
0.836117
0.846743
0.857761
0.867255
0.876548
0.884344
0.891607
0.897675
0.903493
0.908476
0.913375
0.917677
0.921998
0.925741
0.929601
0.932835
0.936366
0.939325
0.942484
0.944914
0.947233
0.949166
0.95112
0.952886
0.954898
0.956777
0.958807
0.960718
0.962641
0.964495
0.966255
0.968042
0.969622
0.971352
0.972733
0.974405
0.975549
0.977119
0.978036
0.979529
0.980249
0.981671
0.982181
0.983521
0.983789
0.985043
0.985089
0.986286
0.986177
0.987465
0.987367
0.988613
0.988191
0.989379
0.988902
0.990253
0.989884
0.991515
0.990566
0.992021
0.992172
0.993827
0.993197
0.994911
0.995931
0.997893
0.998739
1.00032
1.00241
1.00494
1.00544
1.00868
1.01753
1.02645
1.0356
1.032
1.03362
1.029
1.03106
1.01979
1.01581
1.0091
1.00366
0.995669
0.990228
0.985478
0.980845
0.974546
0.963448
0.959347
0.950048
0.951639
0.960334
0.961525
0.976188
0.989759
1.01567
1.01562
0.990349
0.975992
0.961506
0.960212
0.951541
0.949927
0.959606
0.963948
0.974692
0.981687
0.986028
0.991314
0.997062
1.00511
1.00729
1.01742
1.01941
1.03002
1.02834
1.0334
1.0326
1.03114
1.02594
1.02272
1.01943
1.01791
1.01772
1.01843
1.01767
1.02021
1.0201
1.02317
1.02389
1.02736
1.02858
1.03189
1.03332
1.03629
1.03808
1.04088
1.04257
1.04525
1.04727
1.0497
1.05181
1.0545
1.05609
1.05927
1.06087
1.06307
1.0654
1.06693
1.06681
1.06948
1.07193
1.07293
1.07414
1.07642
1.07692
1.07755
1.07963
1.08063
1.08145
1.08258
1.08341
1.08325
1.08348
1.08359
1.08411
1.08412
1.0839
1.0836
1.08308
1.08283
1.08233
1.08176
1.08115
1.07985
1.07883
1.07756
1.07638
1.07495
1.07338
1.07142
1.06966
1.06746
1.06546
1.06317
1.06087
1.05811
1.0552
1.05218
1.0489
1.04535
1.04144
1.03738
1.03319
1.02888
1.02439
1.01985
1.01526
1.0104
1.00295
0.995809
0.992545
0.98897
0.982941
0.976748
0.97006
0.963527
0.957076
0.950802
0.94364
0.937534
0.931269
0.925628
0.919369
0.914484
0.909769
0.906284
0.90331
0.903201
0.900998
0.906051
0.907916
0.911918
0.917444