/*--------------------------------*- C++ -*----------------------------------*\
| =========                 |                                                 |
| \\      /  F ield         | OpenFOAM: The Open Source CFD Toolbox           |
|  \\    /   O peration     | Version:  v2006                                 |
|   \\  /    A nd           | Website:  www.openfoam.com                      |
|    \\/     M anipulation  |                                                 |
\*---------------------------------------------------------------------------*/
FoamFile
{
    version     2.0;
    format      ascii;
    class       volScalarField;
    location    "200";
    object      pMean;
}
// * * * * * * * * * * * * * * * * * * * * * * * * * * * * * * * * * * * * * //

dimensions      [1 -1 -2 0 0 0 0];


internalField   nonuniform List<scalar> 
93840
(
1.02936
1.01979
1.01967
1.01429
1.01682
1.01355
1.01759
1.01553
1.01881
1.01847
1.02221
1.02352
1.02848
1.03172
1.03824
1.04324
1.05026
1.05474
1.06065
1.06335
1.06606
1.06824
1.07133
1.0698
1.06798
1.06678
1.06465
1.06503
1.06282
1.06569
1.06065
1.08268
1.06161
1.06843
1.07336
1.07738
1.07992
1.08342
1.08562
1.08889
1.09057
1.0929
1.09449
1.09651
1.09809
1.10027
1.102
1.1037
1.10506
1.10695
1.10826
1.10955
1.11112
1.11333
1.11409
1.11409
1.11478
1.11594
1.11773
1.11895
1.11924
1.1202
1.12121
1.12126
1.12143
1.12178
1.12175
1.12137
1.12137
1.12109
1.12065
1.12026
1.11961
1.11871
1.11799
1.11698
1.11592
1.11478
1.1133
1.11186
1.11048
1.10893
1.10727
1.10515
1.103
1.10085
1.09846
1.09613
1.09371
1.09111
1.08789
1.08443
1.08097
1.07724
1.07339
1.06914
1.06487
1.06044
1.05584
1.05081
1.04564
1.04051
1.03533
1.02645
1.01723
1.01392
1.01128
1.00421
0.996431
0.988699
0.981133
0.973598
0.966412
0.957648
0.949839
0.942039
0.935314
0.927139
0.921085
0.914651
0.910605
0.905212
0.904452
0.901383
0.904961
0.908451
0.909229
0.918725
0.920278
0.92641
0.933854
0.939681
0.947776
0.952508
0.959134
0.96495
0.972842
0.978026
0.984857
0.989408
0.994985
0.999891
1.00684
1.01193
1.01758
1.02241
1.02777
1.03248
1.03856
1.04446
1.05056
1.05619
1.0625
1.06873
1.07558
1.08212
1.08936
1.09648
1.1048
1.11288
1.12035
1.12724
1.13562
1.14433
1.15386
1.16397
1.17538
1.18651
1.19748
1.20919
1.22359
1.23927
1.25554
1.27063
1.28869
1.30883
1.33084
1.35631
1.3814
1.40618
1.42182
1.43554
1.4066
1.33926
1.21787
1.08444
0.937097
0.843216
0.800196
0.796571
0.717588
0.662267
0.620231
0.599362
0.570787
0.56175
0.552999
0.548049
0.543767
0.540912
0.54268
0.544291
0.545243
0.546125
0.547326
0.549586
0.55179
0.553497
0.555584
0.557055
0.557735
0.558538
0.558961
0.559132
0.559918
0.561343
0.562541
0.56302
0.563521
0.562537
0.559674
0.558626
0.559997
0.56145
0.563586
0.565762
0.567985
0.5707
0.575082
0.579687
0.580285
0.577871
0.577054
0.575653
0.575702
0.578037
0.580756
0.584921
0.590396
0.594876
0.597457
0.599344
0.602246
0.604778
0.609854
0.617038
0.626446
0.630815
0.639671
0.639981
0.640676
0.65131
0.663643
0.681262
0.7019
0.726312
0.743124
0.755168
0.767252
0.779496
0.791929
0.805851
0.819706
0.831168
0.839893
0.848496
0.855695
0.863629
0.873872
0.883978
0.888228
0.89219
0.900066
0.909542
0.914998
0.918553
0.923691
0.930319
0.936213
0.941385
0.946548
0.951627
0.956729
0.961695
0.966686
0.971485
0.975912
0.980233
0.984336
0.988463
0.992316
0.995853
0.999192
1.00232
1.00534
1.00826
1.01111
1.01379
1.01635
1.01849
1.02072
1.02269
1.02455
1.02622
1.02822
1.02985
1.03178
1.03311
1.03485
1.03586
1.03757
1.03831
1.04001
1.04054
1.04214
1.04256
1.04434
1.04461
1.04634
1.04639
1.04809
1.04783
1.04953
1.04907
1.05075
1.05003
1.05184
1.05096
1.05284
1.05164
1.05369
1.05215
1.05462
1.05246
1.05501
1.05257
1.05119
1.05491
1.05866
1.06166
1.06436
1.06677
1.07011
1.06981
1.07086
1.07173
1.06853
1.06638
1.06328
1.0607
1.05469
1.05023
1.04312
1.03813
1.03159
1.02833
1.02333
1.02201
1.01827
1.01853
1.01524
1.01717
1.01327
1.01644
1.01402
1.0194
1.01961
1.02918
1.02917
1.0196
1.0194
1.01402
1.01644
1.01327
1.01718
1.01524
1.01854
1.01828
1.02203
1.02336
1.02837
1.03163
1.03818
1.04317
1.05028
1.05474
1.06073
1.06331
1.06638
1.06856
1.07159
1.07076
1.06968
1.06929
1.06657
1.06493
1.06283
1.06253
1.0601
1.06218
1.06592
1.06957
1.07346
1.07679
1.07958
1.08278
1.08497
1.08799
1.08975
1.09226
1.09385
1.09605
1.09761
1.09975
1.10135
1.10319
1.10458
1.10641
1.10775
1.10923
1.11064
1.11248
1.11339
1.11385
1.11467
1.11575
1.11725
1.11842
1.11892
1.11982
1.12072
1.12089
1.12113
1.12142
1.12143
1.12113
1.12111
1.12083
1.12041
1.12001
1.11938
1.11852
1.11779
1.11679
1.11574
1.1146
1.11315
1.11172
1.11033
1.10877
1.10712
1.10502
1.10289
1.10074
1.09836
1.09603
1.09359
1.09098
1.08779
1.08435
1.08089
1.07718
1.07333
1.06909
1.06484
1.06041
1.05581
1.0508
1.04565
1.04048
1.03525
1.02654
1.01754
1.01408
1.01122
1.00422
0.996567
0.988877
0.981346
0.973828
0.966646
0.957953
0.950227
0.94246
0.935742
0.927662
0.921674
0.915296
0.911247
0.905984
0.905249
0.902271
0.905795
0.909199
0.910075
0.919331
0.921008
0.927146
0.934471
0.94027
0.948279
0.953051
0.959714
0.965484
0.973301
0.978482
0.985299
0.989889
0.99555
1.00047
1.00735
1.01244
1.01814
1.02301
1.02845
1.03325
1.03935
1.04523
1.05138
1.0571
1.06348
1.06977
1.07668
1.0833
1.09065
1.09786
1.10614
1.11418
1.1219
1.12917
1.13777
1.14667
1.15645
1.16674
1.1782
1.18962
1.20139
1.21391
1.22852
1.24392
1.26031
1.27652
1.29495
1.31438
1.33482
1.3563
1.37714
1.39702
1.40543
1.41862
1.39475
1.3522
1.27008
1.16725
1.04533
0.941459
0.87168
0.842739
0.767501
0.708903
0.658902
0.632099
0.597427
0.581792
0.56923
0.561073
0.554539
0.549548
0.54939
0.550199
0.550515
0.550799
0.551365
0.552987
0.554852
0.556308
0.55811
0.559427
0.559985
0.560604
0.5609
0.560927
0.561494
0.562723
0.563853
0.564303
0.564749
0.563879
0.561022
0.559668
0.560822
0.562191
0.564228
0.566352
0.568553
0.571236
0.575571
0.580179
0.580948
0.578614
0.577744
0.576304
0.576224
0.578455
0.581152
0.585302
0.590785
0.595254
0.597832
0.599715
0.602634
0.60516
0.610208
0.617353
0.626843
0.631157
0.639848
0.640403
0.641088
0.651588
0.663984
0.681617
0.702259
0.726647
0.743438
0.755444
0.767503
0.779733
0.792155
0.806067
0.819928
0.831377
0.840049
0.848636
0.855904
0.863881
0.873948
0.88389
0.888308
0.892485
0.900246
0.909487
0.914979
0.918719
0.923889
0.93042
0.93628
0.941477
0.946654
0.951735
0.956834
0.961796
0.966769
0.971559
0.975995
0.980318
0.984413
0.988497
0.992335
0.995909
0.999262
1.00241
1.00543
1.00834
1.01117
1.01383
1.01639
1.01854
1.02077
1.02274
1.02462
1.02629
1.0283
1.02991
1.03183
1.03316
1.03489
1.0359
1.0376
1.03832
1.04001
1.04053
1.04216
1.0426
1.04437
1.04462
1.04632
1.04635
1.04805
1.04778
1.04949
1.04901
1.05068
1.04996
1.05178
1.05087
1.05274
1.05153
1.0536
1.05191
1.05465
1.05168
1.05677
1.04878
1.06209
1.05573
1.05905
1.05877
1.06127
1.06284
1.06499
1.06699
1.06939
1.07097
1.06787
1.0659
1.06331
1.06063
1.0547
1.05022
1.0432
1.03819
1.03169
1.02846
1.02351
1.0222
1.01846
1.01881
1.01553
1.01759
1.01355
1.01682
1.01428
1.01967
1.01979
1.02935
1.02937
1.0198
1.01968
1.0143
1.01683
1.01357
1.0176
1.01555
1.01882
1.01849
1.02224
1.02356
1.02853
1.03177
1.0383
1.04331
1.05033
1.05481
1.06069
1.06344
1.06628
1.0685
1.07149
1.07018
1.0688
1.06828
1.06677
1.0672
1.06662
1.06855
1.07025
1.073
1.0653
1.0762
1.07309
1.07951
1.07943
1.08384
1.08489
1.08831
1.08965
1.09226
1.09373
1.09593
1.09748
1.09957
1.10118
1.10299
1.10441
1.1062
1.10755
1.10903
1.11044
1.11223
1.11313
1.11365
1.11451
1.1156
1.11706
1.11819
1.11873
1.11963
1.1205
1.12069
1.12095
1.12124
1.12126
1.12097
1.12095
1.12068
1.12027
1.11986
1.11924
1.11839
1.11766
1.11667
1.11562
1.11448
1.11305
1.11162
1.11023
1.10867
1.10702
1.10494
1.10281
1.10066
1.09828
1.09596
1.09352
1.09091
1.08772
1.08429
1.08084
1.07712
1.07328
1.06906
1.06481
1.06038
1.05579
1.05079
1.04564
1.04047
1.03522
1.02656
1.01767
1.01417
1.01122
1.00424
0.996644
0.988979
0.981469
0.973969
0.966785
0.958137
0.950454
0.942715
0.936016
0.927967
0.922046
0.91567
0.911664
0.906408
0.905726
0.902805
0.90631
0.909677
0.910602
0.919757
0.921477
0.927616
0.934887
0.940679
0.948642
0.953432
0.960099
0.965859
0.973636
0.978818
0.985619
0.990229
0.99591
1.00084
1.00769
1.01279
1.01851
1.02341
1.02887
1.03372
1.03983
1.04573
1.0519
1.05766
1.06407
1.07039
1.07732
1.08398
1.09136
1.0986
1.10688
1.11491
1.12268
1.13006
1.13871
1.14764
1.15745
1.16772
1.17911
1.19043
1.20211
1.21447
1.22892
1.24423
1.26055
1.27651
1.29499
1.31488
1.33678
1.35949
1.3821
1.40468
1.41382
1.42816
1.39999
1.35494
1.2687
1.16714
1.04347
0.948233
0.878626
0.850153
0.776615
0.720824
0.670438
0.642027
0.605838
0.589241
0.575965
0.567227
0.560161
0.55453
0.553083
0.553425
0.553568
0.553606
0.553829
0.555065
0.556744
0.558042
0.559677
0.560925
0.561409
0.561911
0.56214
0.562074
0.562492
0.563574
0.564661
0.565075
0.565485
0.564668
0.561807
0.560337
0.56136
0.562648
0.564628
0.566719
0.5689
0.571556
0.575889
0.580505
0.581381
0.579058
0.578147
0.576675
0.57652
0.578705
0.581388
0.585518
0.591029
0.595529
0.5981
0.59996
0.602876
0.605386
0.610403
0.617534
0.627118
0.631409
0.639996
0.640661
0.641261
0.651661
0.664047
0.681637
0.702279
0.726756
0.743674
0.755643
0.767658
0.779881
0.792274
0.806156
0.820019
0.831496
0.840188
0.848759
0.856041
0.86402
0.874017
0.883914
0.888394
0.892623
0.90033
0.909501
0.915018
0.91881
0.923982
0.930481
0.936331
0.941534
0.946712
0.951791
0.956886
0.961846
0.966811
0.971593
0.976031
0.980355
0.984446
0.98853
0.992358
0.995908
0.999258
1.00241
1.00545
1.00836
1.0112
1.01384
1.01638
1.01851
1.0207
1.02266
1.02458
1.02625
1.02823
1.02985
1.03176
1.03309
1.03483
1.03584
1.03752
1.03827
1.03995
1.0405
1.04212
1.04254
1.04428
1.04453
1.04625
1.04628
1.04798
1.04774
1.04944
1.04899
1.05068
1.05
1.05175
1.05089
1.05269
1.0516
1.05348
1.05215
1.05427
1.05275
1.05529
1.05342
1.05731
1.0555
1.05889
1.06016
1.06305
1.06617
1.06922
1.06921
1.07091
1.07169
1.06838
1.06632
1.06321
1.06066
1.05464
1.05016
1.04305
1.03807
1.03154
1.02829
1.02331
1.02199
1.01826
1.01853
1.01524
1.01717
1.01327
1.01644
1.01403
1.0194
1.01962
1.02919
1.02916
1.01958
1.01938
1.014
1.01643
1.01325
1.01717
1.01522
1.01853
1.01827
1.02204
1.02336
1.02839
1.03166
1.03822
1.04321
1.05032
1.05477
1.06074
1.06334
1.06645
1.06872
1.07165
1.07095
1.07009
1.06993
1.06801
1.06716
1.06558
1.06564
1.06553
1.06818
1.06999
1.07233
1.0749
1.07767
1.07997
1.08281
1.08481
1.08754
1.08927
1.09172
1.09331
1.09553
1.09707
1.09917
1.1007
1.10258
1.10399
1.10578
1.10712
1.10868
1.11001
1.11164
1.11263
1.11338
1.1143
1.11535
1.11666
1.11777
1.11841
1.11927
1.12008
1.12036
1.12065
1.12091
1.12096
1.12073
1.1207
1.12043
1.12004
1.11963
1.11902
1.1182
1.11747
1.11649
1.11545
1.11431
1.1129
1.11149
1.11009
1.10853
1.10687
1.10481
1.1027
1.10055
1.09819
1.09586
1.09341
1.09079
1.08763
1.08422
1.08077
1.07707
1.07323
1.06902
1.06478
1.06036
1.05576
1.05078
1.04565
1.04046
1.03518
1.02666
1.01793
1.01433
1.01119
1.00428
0.996787
0.989162
0.981685
0.974206
0.967038
0.958438
0.950839
0.943129
0.936423
0.928477
0.922583
0.916295
0.912223
0.907153
0.906437
0.903569
0.907048
0.910314
0.911312
0.92026
0.922085
0.928211
0.935388
0.941148
0.949042
0.953857
0.960552
0.966268
0.973991
0.979166
0.985965
0.990601
0.996356
1.00129
1.0081
1.0132
1.01896
1.02388
1.02941
1.03432
1.04045
1.04632
1.05254
1.05835
1.06482
1.07116
1.07814
1.08485
1.09229
1.09959
1.10784
1.11585
1.12379
1.1314
1.1402
1.14925
1.15922
1.16961
1.18107
1.19261
1.20475
1.21758
1.23214
1.24734
1.26363
1.2801
1.29839
1.31796
1.33826
1.35999
1.37918
1.39653
1.40735
1.41608
1.39643
1.36246
1.28944
1.20411
1.09862
1.0026
0.925401
0.882893
0.810799
0.752308
0.697749
0.665564
0.625969
0.604831
0.588482
0.577086
0.568315
0.561002
0.558194
0.557782
0.557534
0.557139
0.557005
0.55774
0.559207
0.560376
0.561815
0.562945
0.563376
0.563747
0.563878
0.56371
0.563956
0.564879
0.565906
0.566311
0.56667
0.565981
0.563147
0.561333
0.562148
0.563383
0.565266
0.567306
0.569457
0.572085
0.576374
0.581006
0.58206
0.579836
0.578872
0.577362
0.577072
0.579135
0.581779
0.585897
0.591435
0.595936
0.598491
0.600339
0.60327
0.60576
0.610741
0.617857
0.627535
0.631803
0.640195
0.641062
0.641646
0.651862
0.664295
0.681883
0.702583
0.727147
0.74408
0.755958
0.767926
0.780135
0.792495
0.806342
0.820243
0.831758
0.840391
0.84892
0.856241
0.864254
0.874113
0.883866
0.888465
0.892867
0.900499
0.909486
0.915016
0.91895
0.924156
0.930583
0.936407
0.941629
0.94682
0.951903
0.956996
0.961954
0.966903
0.971675
0.97612
0.980446
0.984532
0.988567
0.992366
0.99595
0.999319
1.00249
1.00554
1.00844
1.01127
1.0139
1.01643
1.01858
1.0208
1.02276
1.02467
1.02637
1.02835
1.02994
1.03184
1.03316
1.03489
1.0359
1.03758
1.03831
1.03999
1.04052
1.04216
1.04258
1.04432
1.04454
1.04623
1.04623
1.04792
1.04765
1.04936
1.04888
1.0506
1.04987
1.05168
1.05071
1.05261
1.05132
1.05346
1.05172
1.05449
1.05201
1.05616
1.05224
1.05845
1.05545
1.05911
1.05839
1.06045
1.06208
1.0641
1.0665
1.06912
1.07071
1.06762
1.06579
1.06318
1.06059
1.05464
1.05016
1.04315
1.03813
1.03164
1.02841
1.02347
1.02218
1.01844
1.01878
1.01551
1.01758
1.01354
1.0168
1.01427
1.01966
1.01978
1.02934
1.02938
1.01981
1.01969
1.01431
1.01684
1.01359
1.01762
1.01558
1.01885
1.01852
1.02227
1.02359
1.02857
1.03183
1.03836
1.04337
1.05038
1.05486
1.06074
1.06349
1.06643
1.06866
1.07155
1.0704
1.06933
1.0691
1.06802
1.06896
1.06893
1.07069
1.07068
1.07358
1.07079
1.07699
1.07506
1.08048
1.07999
1.08427
1.08478
1.08818
1.08921
1.09192
1.09323
1.09551
1.09696
1.09903
1.10054
1.10238
1.1038
1.10554
1.1069
1.10843
1.10977
1.11134
1.11234
1.11313
1.11409
1.11514
1.11642
1.1175
1.11817
1.11902
1.11981
1.1201
1.12041
1.12067
1.12073
1.12052
1.12049
1.12022
1.11985
1.11943
1.11884
1.11803
1.1173
1.11632
1.11529
1.11415
1.11275
1.11135
1.10995
1.10839
1.10673
1.10469
1.10258
1.10044
1.09808
1.09576
1.09331
1.09068
1.08753
1.08413
1.08069
1.07698
1.07315
1.06896
1.06473
1.06032
1.05573
1.05076
1.04564
1.04044
1.03512
1.02667
1.0181
1.01445
1.01121
1.00431
0.99689
0.989297
0.981851
0.974398
0.967219
0.958693
0.951143
0.943478
0.936804
0.928882
0.9231
0.916785
0.912813
0.907692
0.907087
0.904297
0.907748
0.910974
0.912037
0.920861
0.922735
0.928864
0.935969
0.941725
0.949556
0.954396
0.961087
0.966793
0.974461
0.979639
0.986408
0.991067
0.996836
1.00179
1.00855
1.01366
1.01942
1.02437
1.02993
1.03488
1.04101
1.04689
1.05312
1.05897
1.06546
1.07182
1.07882
1.08555
1.09301
1.10032
1.10856
1.11656
1.12454
1.13221
1.14104
1.1501
1.16005
1.1704
1.18177
1.19317
1.20519
1.21781
1.23219
1.24719
1.26334
1.27943
1.29764
1.31668
1.33727
1.35749
1.37731
1.39568
1.40265
1.41143
1.38657
1.35172
1.28047
1.1985
1.09215
1.00438
0.927747
0.887154
0.816383
0.761334
0.707451
0.674553
0.63394
0.612169
0.595137
0.583352
0.574129
0.566242
0.562352
0.561718
0.561092
0.560365
0.559836
0.560203
0.561262
0.56234
0.563578
0.564611
0.565028
0.56527
0.565349
0.565106
0.565178
0.565926
0.566907
0.567274
0.567592
0.566974
0.564175
0.562271
0.562897
0.563998
0.565807
0.567798
0.569937
0.572521
0.576806
0.581448
0.582634
0.580428
0.579409
0.577857
0.577473
0.579469
0.582092
0.586197
0.591786
0.596325
0.598857
0.600678
0.603602
0.606069
0.610997
0.618106
0.627931
0.632164
0.640419
0.641426
0.641896
0.651967
0.664382
0.681919
0.702653
0.727401
0.744482
0.756271
0.768175
0.780381
0.792706
0.8065
0.820424
0.831987
0.840622
0.849118
0.856447
0.864447
0.87421
0.883915
0.888596
0.893044
0.900592
0.909496
0.915068
0.919061
0.924262
0.930654
0.936469
0.941698
0.946887
0.951966
0.957052
0.962004
0.966941
0.971705
0.976153
0.980478
0.984559
0.988583
0.992369
0.995935
0.999302
1.00248
1.00553
1.00845
1.01127
1.01389
1.01641
1.01854
1.02072
1.02268
1.02461
1.02631
1.02827
1.02986
1.03175
1.03307
1.0348
1.03581
1.03748
1.03823
1.03988
1.04045
1.04208
1.04248
1.04417
1.0444
1.0461
1.04611
1.04779
1.04757
1.04924
1.04881
1.05049
1.04984
1.05153
1.05071
1.0524
1.05142
1.05316
1.05203
1.05396
1.05278
1.05518
1.0539
1.05721
1.05593
1.05899
1.05946
1.06182
1.06405
1.0672
1.06837
1.07035
1.07124
1.06808
1.06623
1.06323
1.06063
1.0546
1.05012
1.043
1.03802
1.0315
1.02827
1.02329
1.02198
1.01826
1.01853
1.01525
1.01717
1.01328
1.01644
1.01403
1.01941
1.01963
1.0292
1.02914
1.01957
1.01937
1.01399
1.01642
1.01324
1.01717
1.01522
1.01853
1.01828
1.02205
1.02338
1.02842
1.03169
1.03827
1.04325
1.05036
1.0548
1.06076
1.06338
1.06655
1.06887
1.07171
1.07111
1.07052
1.07049
1.069
1.06865
1.06772
1.06854
1.06898
1.07113
1.07241
1.07452
1.0764
1.07877
1.08065
1.08315
1.08492
1.08739
1.08902
1.09135
1.09289
1.09506
1.09656
1.0986
1.10008
1.10196
1.10335
1.10511
1.10644
1.10802
1.1093
1.1108
1.11184
1.11279
1.11377
1.11482
1.116
1.11705
1.11778
1.11861
1.11936
1.11971
1.12005
1.1203
1.12038
1.12022
1.12018
1.11992
1.11956
1.11915
1.11857
1.11778
1.11705
1.11609
1.11506
1.11394
1.11256
1.11117
1.10977
1.1082
1.10655
1.10453
1.10244
1.10029
1.09795
1.09562
1.09316
1.09053
1.0874
1.08403
1.0806
1.07691
1.07308
1.0689
1.06468
1.06026
1.05568
1.05073
1.04563
1.04043
1.0351
1.02676
1.01835
1.01463
1.01118
1.00436
0.997048
0.989506
0.982101
0.974678
0.967527
0.959037
0.951597
0.943964
0.937271
0.929484
0.923706
0.917525
0.913425
0.908574
0.907892
0.905136
0.908586
0.911678
0.912816
0.921417
0.923396
0.929505
0.936514
0.942232
0.949991
0.95485
0.961567
0.967225
0.974839
0.980004
0.986774
0.991456
0.997296
1.00225
1.00897
1.01408
1.01989
1.02486
1.03048
1.03549
1.04164
1.04751
1.05378
1.05967
1.06621
1.07261
1.07965
1.08644
1.09396
1.10132
1.10955
1.11755
1.12568
1.13357
1.14253
1.15171
1.1618
1.17225
1.1837
1.1953
1.20765
1.22059
1.23499
1.24991
1.26589
1.28217
1.29985
1.31844
1.33728
1.35683
1.37336
1.3894
1.39645
1.40539
1.38379
1.35673
1.29539
1.22413
1.13343
1.04689
0.968875
0.918343
0.849122
0.791504
0.734656
0.698233
0.654984
0.629054
0.608797
0.594037
0.582924
0.573229
0.567579
0.565897
0.564702
0.563821
0.562875
0.562942
0.563618
0.564656
0.565647
0.566643
0.566967
0.567138
0.567086
0.566777
0.566658
0.567272
0.568142
0.568593
0.568853
0.568401
0.565667
0.563366
0.563756
0.564827
0.566527
0.568476
0.570583
0.573136
0.577363
0.582046
0.583451
0.581398
0.580318
0.578725
0.578165
0.580004
0.582567
0.586644
0.592292
0.596844
0.599352
0.60115
0.604092
0.606534
0.611403
0.618502
0.628466
0.632698
0.640681
0.641918
0.642342
0.652154
0.664579
0.682106
0.702926
0.727896
0.745045
0.75668
0.768507
0.780703
0.792975
0.806698
0.820676
0.832322
0.840921
0.849358
0.856707
0.86472
0.874335
0.883902
0.888701
0.893298
0.900766
0.909505
0.915089
0.919206
0.924435
0.93076
0.936552
0.941797
0.946998
0.952081
0.957166
0.962116
0.967037
0.971787
0.976235
0.980559
0.984634
0.988615
0.992376
0.995966
0.99935
1.00255
1.00561
1.00852
1.01133
1.01394
1.01646
1.01861
1.02081
1.02276
1.0247
1.0264
1.02836
1.02992
1.0318
1.0331
1.03485
1.03584
1.03751
1.03825
1.0399
1.04043
1.04207
1.04246
1.04417
1.04436
1.04604
1.046
1.04769
1.04741
1.04913
1.04863
1.0504
1.04966
1.05149
1.0505
1.0524
1.05114
1.05324
1.05167
1.0542
1.05228
1.05558
1.05337
1.05743
1.05571
1.05902
1.0587
1.06083
1.06189
1.06383
1.06579
1.06843
1.07031
1.06741
1.06572
1.06312
1.06056
1.05458
1.0501
1.04309
1.03808
1.03159
1.02838
1.02345
1.02215
1.01842
1.01877
1.0155
1.01757
1.01353
1.0168
1.01426
1.01965
1.01977
1.02933
1.0294
1.01983
1.01971
1.01433
1.01685
1.0136
1.01763
1.0156
1.01886
1.01854
1.02229
1.02362
1.02861
1.03187
1.03842
1.04342
1.05044
1.05491
1.06077
1.06353
1.06657
1.06882
1.0716
1.07065
1.0699
1.06994
1.06929
1.07042
1.07061
1.07218
1.07207
1.07463
1.07369
1.07776
1.07696
1.08111
1.08091
1.0846
1.08502
1.08816
1.08904
1.09166
1.09285
1.0951
1.09646
1.09848
1.09992
1.10174
1.10315
1.10484
1.10619
1.10773
1.10902
1.11047
1.11154
1.11249
1.1135
1.11454
1.11571
1.11673
1.11748
1.1183
1.11904
1.1194
1.11975
1.12
1.1201
1.11995
1.11992
1.11966
1.11932
1.1189
1.11833
1.11756
1.11683
1.11588
1.11486
1.11373
1.11237
1.11099
1.10959
1.10802
1.10637
1.10436
1.10228
1.10015
1.09781
1.09549
1.09303
1.0904
1.08727
1.08391
1.08048
1.0768
1.07298
1.06882
1.06461
1.06021
1.05564
1.0507
1.04561
1.0404
1.03502
1.02677
1.01856
1.01477
1.01121
1.0044
0.997181
0.989675
0.982308
0.974919
0.967748
0.959359
0.95197
0.944394
0.937749
0.929972
0.924348
0.918105
0.914156
0.909192
0.908656
0.905999
0.909404
0.912452
0.913661
0.922123
0.924147
0.930254
0.937176
0.942887
0.950571
0.95545
0.962152
0.967797
0.975347
0.980515
0.987249
0.991951
0.997798
1.00276
1.00944
1.01455
1.02037
1.02537
1.03101
1.03606
1.04221
1.04808
1.05437
1.06029
1.06685
1.07327
1.08032
1.08713
1.09465
1.10203
1.11024
1.11823
1.12638
1.13431
1.14328
1.15244
1.1625
1.17288
1.18422
1.19565
1.20785
1.22054
1.23473
1.24937
1.26516
1.28099
1.29848
1.31637
1.33524
1.35326
1.3702
1.38566
1.38968
1.39788
1.37327
1.34379
1.28292
1.21637
1.12469
1.04588
0.9682
0.920648
0.852133
0.798159
0.742423
0.7062
0.662381
0.636216
0.615283
0.600332
0.588847
0.578937
0.572422
0.570337
0.568849
0.567468
0.566172
0.565709
0.566179
0.566838
0.567762
0.568494
0.568842
0.568842
0.568745
0.568304
0.568094
0.568472
0.569314
0.569648
0.569908
0.569499
0.566803
0.564404
0.564606
0.565471
0.567158
0.568971
0.571094
0.573578
0.577857
0.582529
0.584091
0.582077
0.580947
0.579321
0.57866
0.580414
0.582949
0.587008
0.592727
0.597343
0.599804
0.601572
0.604501
0.606916
0.611722
0.618816
0.628974
0.633185
0.640971
0.642369
0.642683
0.652291
0.6647
0.682189
0.703093
0.728343
0.745638
0.757119
0.768866
0.781064
0.793284
0.80693
0.820957
0.832682
0.841253
0.849639
0.856988
0.864979
0.874474
0.883986
0.888877
0.893519
0.900882
0.90952
0.915158
0.919338
0.924559
0.930847
0.936633
0.941884
0.947081
0.952158
0.957233
0.962173
0.96708
0.971823
0.976272
0.980593
0.984665
0.988638
0.992389
0.995963
0.999336
1.00253
1.0056
1.00851
1.01132
1.01392
1.01642
1.01856
1.02073
1.02268
1.02462
1.02632
1.02826
1.02983
1.03168
1.03299
1.03472
1.03574
1.0374
1.03815
1.03977
1.04033
1.04194
1.04234
1.04398
1.0442
1.04586
1.04586
1.04751
1.0473
1.04894
1.04854
1.05019
1.0496
1.05124
1.0505
1.05213
1.05127
1.05293
1.052
1.0538
1.05288
1.05501
1.05416
1.05683
1.0561
1.05889
1.05913
1.06145
1.06292
1.06554
1.0668
1.06928
1.0707
1.06777
1.06616
1.06322
1.06061
1.05455
1.05006
1.04295
1.03796
1.03146
1.02824
1.02327
1.02197
1.01825
1.01852
1.01525
1.01717
1.01329
1.01644
1.01404
1.01942
1.01964
1.02921
1.02913
1.01956
1.01936
1.01398
1.01642
1.01323
1.01716
1.01521
1.01853
1.01828
1.02206
1.0234
1.02845
1.03173
1.03832
1.0433
1.05041
1.05484
1.06079
1.06341
1.06666
1.069
1.07175
1.07129
1.07099
1.07113
1.07003
1.07011
1.06974
1.07082
1.07145
1.07323
1.07436
1.07625
1.07777
1.07984
1.08143
1.08363
1.08519
1.08743
1.08892
1.0911
1.09256
1.09464
1.09608
1.09805
1.09947
1.10131
1.10267
1.1044
1.1057
1.10727
1.10851
1.10995
1.11102
1.11208
1.1131
1.11415
1.11524
1.11626
1.11703
1.11784
1.11855
1.11896
1.11933
1.11957
1.11969
1.11958
1.11955
1.11931
1.11898
1.11857
1.11801
1.11726
1.11654
1.11559
1.11458
1.11347
1.11213
1.11076
1.10936
1.1078
1.10615
1.10416
1.1021
1.09996
1.09763
1.09531
1.09284
1.0902
1.08711
1.08378
1.08036
1.07669
1.07289
1.06874
1.06453
1.06014
1.05557
1.05065
1.04559
1.04039
1.03501
1.02686
1.0188
1.01498
1.0112
1.00445
0.997356
0.98991
0.982591
0.97524
0.96811
0.959745
0.952485
0.944947
0.938266
0.930649
0.924997
0.918935
0.914774
0.910164
0.909492
0.906873
0.910307
0.913195
0.914473
0.922709
0.924834
0.930912
0.93774
0.943413
0.951024
0.955921
0.962644
0.968243
0.975743
0.980897
0.987634
0.992359
0.998271
1.00324
1.00989
1.015
1.02086
1.02588
1.03158
1.03668
1.04286
1.04872
1.05505
1.06101
1.06763
1.07408
1.08118
1.08803
1.09561
1.10303
1.11126
1.11927
1.12754
1.13565
1.14474
1.15402
1.16419
1.17467
1.18607
1.19768
1.21006
1.22297
1.23708
1.25163
1.26711
1.2829
1.29967
1.31698
1.33418
1.35148
1.36571
1.3794
1.38336
1.39153
1.36979
1.34543
1.29496
1.23408
1.15611
1.07887
1.00353
0.949207
0.882716
0.826477
0.768959
0.729551
0.683857
0.654063
0.630004
0.611871
0.598374
0.586553
0.578118
0.574507
0.572368
0.570803
0.569197
0.568367
0.568552
0.569024
0.569881
0.570475
0.570789
0.57069
0.570512
0.569953
0.569616
0.569801
0.570566
0.57092
0.571164
0.57087
0.568307
0.565554
0.565504
0.56631
0.567884
0.569653
0.571708
0.57416
0.578381
0.583139
0.584936
0.583133
0.581922
0.58026
0.579406
0.580992
0.583457
0.58749
0.593287
0.597947
0.600382
0.60212
0.605063
0.607468
0.612212
0.619272
0.629632
0.633866
0.641294
0.642948
0.643219
0.652489
0.664912
0.68239
0.703393
0.728994
0.746397
0.757646
0.769285
0.781485
0.793635
0.807173
0.821276
0.83311
0.841658
0.849964
0.857314
0.865296
0.874632
0.884013
0.889022
0.893788
0.901065
0.90956
0.915208
0.919492
0.924732
0.930956
0.936721
0.941987
0.947194
0.952276
0.957349
0.962288
0.967178
0.971903
0.976346
0.980661
0.984727
0.988669
0.992398
0.99598
0.999372
1.00258
1.00565
1.00856
1.01137
1.01395
1.01645
1.01861
1.0208
1.02274
1.02468
1.02639
1.02832
1.02986
1.03171
1.033
1.03473
1.03573
1.0374
1.03814
1.03976
1.04028
1.0419
1.04227
1.04393
1.0441
1.04576
1.0457
1.04738
1.04708
1.0488
1.0483
1.05008
1.04934
1.05117
1.05021
1.05212
1.05095
1.05301
1.05166
1.05401
1.05255
1.05529
1.05384
1.05695
1.05583
1.05885
1.0587
1.06098
1.06204
1.06397
1.06519
1.06773
1.06991
1.06721
1.06568
1.06308
1.06051
1.05451
1.05004
1.04303
1.03802
1.03155
1.02834
1.02342
1.02213
1.0184
1.01876
1.01549
1.01757
1.01352
1.01679
1.01425
1.01964
1.01976
1.02933
1.02941
1.01984
1.01972
1.01434
1.01686
1.01361
1.01764
1.01561
1.01888
1.01856
1.02231
1.02365
1.02865
1.03193
1.03848
1.04348
1.05049
1.05497
1.06081
1.06358
1.0667
1.06897
1.0716
1.07093
1.07048
1.07083
1.07049
1.07176
1.072
1.07348
1.07358
1.07576
1.07564
1.07859
1.07851
1.08168
1.08187
1.0849
1.08543
1.08818
1.08904
1.09146
1.09257
1.09472
1.09601
1.09795
1.09932
1.10109
1.10246
1.10411
1.10543
1.10694
1.1082
1.10958
1.11068
1.11173
1.11277
1.1138
1.11489
1.11588
1.11668
1.11746
1.11817
1.11859
1.11897
1.11921
1.11935
1.11925
1.11922
1.11899
1.11867
1.11826
1.11772
1.11698
1.11626
1.11533
1.11433
1.11322
1.11189
1.11053
1.10913
1.10757
1.10592
1.10395
1.1019
1.09977
1.09746
1.09514
1.09268
1.09004
1.08695
1.08363
1.08021
1.07655
1.07275
1.06864
1.06445
1.06007
1.05552
1.05062
1.04556
1.04037
1.03492
1.02686
1.01904
1.01515
1.01124
1.00452
0.997519
0.990114
0.98284
0.975532
0.968374
0.960135
0.952924
0.945484
0.938787
0.931354
0.925594
0.919767
0.915382
0.91116
0.910031
0.907796
0.911134
0.914015
0.915335
0.923448
0.925613
0.931688
0.938425
0.944095
0.951625
0.956545
0.963244
0.968836
0.976268
0.981431
0.988127
0.992874
0.998785
1.00377
1.01037
1.01549
1.02135
1.0264
1.03212
1.03726
1.04344
1.04931
1.05565
1.06164
1.06826
1.07473
1.08183
1.08871
1.09628
1.10372
1.11191
1.11992
1.12819
1.13633
1.14539
1.15465
1.16475
1.17514
1.1864
1.19783
1.21002
1.22266
1.23653
1.25075
1.26598
1.28126
1.29777
1.31432
1.33135
1.34722
1.36169
1.3745
1.37674
1.38377
1.35995
1.33442
1.28088
1.22584
1.14615
1.07612
1.00089
0.950124
0.883937
0.831226
0.774965
0.7364
0.690605
0.660906
0.636277
0.618123
0.604312
0.592528
0.58334
0.579431
0.576842
0.574874
0.572841
0.571514
0.571362
0.571476
0.572144
0.572533
0.572789
0.57256
0.572313
0.571656
0.571189
0.571215
0.571835
0.572105
0.572338
0.57205
0.569552
0.566742
0.566477
0.567155
0.568582
0.570319
0.57228
0.574726
0.578866
0.583695
0.585613
0.583869
0.582601
0.580913
0.579957
0.581435
0.583836
0.587894
0.593736
0.598509
0.600847
0.602586
0.605499
0.607908
0.612562
0.619608
0.630226
0.634441
0.641648
0.643457
0.643648
0.652661
0.665073
0.682532
0.703635
0.72961
0.747194
0.758229
0.769753
0.781964
0.794051
0.807483
0.821634
0.833595
0.842098
0.850331
0.857675
0.865627
0.874819
0.884135
0.889246
0.894054
0.90121
0.909589
0.9153
0.919647
0.924874
0.931061
0.936823
0.942092
0.947291
0.952366
0.957426
0.962352
0.967227
0.971944
0.976385
0.980697
0.984763
0.988702
0.992422
0.995986
0.999359
1.00256
1.00563
1.00854
1.01134
1.01393
1.0164
1.01855
1.02071
1.02265
1.02459
1.0263
1.0282
1.02975
1.03157
1.03287
1.03458
1.0356
1.03724
1.03802
1.03961
1.04017
1.04174
1.04212
1.04372
1.04393
1.04553
1.04554
1.04714
1.04695
1.04855
1.04818
1.04978
1.04926
1.05086
1.05021
1.0518
1.05108
1.05271
1.05196
1.0537
1.05301
1.05496
1.0544
1.05664
1.05626
1.05877
1.05902
1.06141
1.06252
1.0647
1.0655
1.06822
1.07016
1.06746
1.06611
1.0632
1.06059
1.05449
1.05001
1.04288
1.0379
1.03141
1.0282
1.02324
1.02195
1.01825
1.01852
1.01525
1.01717
1.01329
1.01644
1.01405
1.01942
1.01964
1.02922
1.02912
1.01954
1.01935
1.01397
1.01641
1.01322
1.01716
1.0152
1.01853
1.01828
1.02207
1.02342
1.02848
1.03177
1.03837
1.04335
1.05046
1.05489
1.06081
1.06345
1.06678
1.06914
1.0718
1.07148
1.0715
1.07183
1.07107
1.07149
1.07153
1.07267
1.07338
1.07491
1.07599
1.07766
1.07898
1.08081
1.0822
1.08416
1.08553
1.08757
1.08892
1.09096
1.0923
1.09428
1.09562
1.09752
1.09885
1.10065
1.10196
1.10365
1.10491
1.10646
1.10766
1.10906
1.11014
1.11126
1.11228
1.11334
1.11438
1.11536
1.11616
1.11695
1.11764
1.11808
1.11848
1.11873
1.11888
1.11882
1.11879
1.11857
1.11827
1.11787
1.11734
1.11662
1.11591
1.11499
1.114
1.1129
1.1116
1.11025
1.10886
1.1073
1.10566
1.1037
1.10167
1.09954
1.09724
1.09492
1.09244
1.0898
1.08674
1.08346
1.08006
1.07642
1.07263
1.06853
1.06435
1.05997
1.05542
1.05055
1.04553
1.04036
1.03492
1.02695
1.01928
1.01537
1.01124
1.00458
0.997719
0.990381
0.983159
0.975899
0.968766
0.960619
0.953422
0.946068
0.939331
0.932039
0.926248
0.920558
0.916091
0.91219
0.910787
0.90876
0.912002
0.914774
0.916164
0.924048
0.926327
0.932366
0.939013
0.944645
0.952105
0.957039
0.963755
0.969302
0.976687
0.981835
0.988533
0.993302
0.999272
1.00426
1.01084
1.01596
1.02187
1.02693
1.03271
1.0379
1.0441
1.04997
1.05635
1.06238
1.06906
1.07556
1.0827
1.08963
1.09726
1.10473
1.11294
1.12097
1.12936
1.13765
1.14681
1.15617
1.16635
1.17683
1.18814
1.19968
1.21197
1.22471
1.23843
1.2525
1.26733
1.28239
1.2981
1.31395
1.32956
1.34454
1.35697
1.36827
1.37043
1.37733
1.3561
1.33362
1.29087
1.23821
1.17065
1.10186
1.03095
0.975643
0.912008
0.857387
0.800432
0.75907
0.71211
0.679351
0.651914
0.630512
0.614605
0.600868
0.589679
0.583935
0.580416
0.578109
0.575807
0.574194
0.57365
0.573728
0.574159
0.574566
0.574684
0.574442