/*--------------------------------*- C++ -*----------------------------------*\
| =========                 |                                                 |
| \\      /  F ield         | OpenFOAM: The Open Source CFD Toolbox           |
|  \\    /   O peration     | Version:  v2006                                 |
|   \\  /    A nd           | Website:  www.openfoam.com                      |
|    \\/     M anipulation  |                                                 |
\*---------------------------------------------------------------------------*/
FoamFile
{
    version     2.0;
    format      ascii;
    class       volScalarField;
    location    "200";
    object      pPrime2Mean;
}
// * * * * * * * * * * * * * * * * * * * * * * * * * * * * * * * * * * * * * //

dimensions      [2 -2 -4 0 0 0 0];


internalField   nonuniform List<scalar> 
93840
(
0.00033144
0.000414504
0.000410727
0.000755887
0.000757802
0.000632546
0.000506166
0.000494626
0.000430188
0.000410116
0.000377234
0.000355548
0.000330929
0.000307741
0.000283801
0.000267438
0.000257516
0.000268331
0.000300311
0.000381141
0.00057226
0.000796725
0.00102524
0.00119458
0.00143999
0.00173112
0.0020088
0.00221451
0.00237767
0.0025691
0.00257517
0.00223393
0.0023403
0.00187415
0.00165821
0.00149685
0.00140338
0.00130272
0.00123985
0.00116588
0.00111967
0.00106684
0.0010279
0.000986308
0.000951708
0.00091595
0.000884038
0.000855923
0.000828561
0.000803514
0.000778601
0.000758875
0.000735211
0.00071496
0.000695494
0.000683367
0.000665685
0.000651498
0.000632832
0.000619578
0.000605357
0.000593811
0.000579437
0.000569984
0.000558143
0.000548804
0.000538063
0.000530067
0.000520212
0.000512319
0.000503734
0.000496298
0.000488575
0.000481947
0.000475006
0.000468818
0.000462784
0.000457114
0.000451908
0.000446922
0.000442057
0.000437625
0.000433344
0.000429736
0.000426167
0.000422976
0.000419987
0.00041726
0.000414796
0.000412657
0.000411125
0.000409929
0.000409008
0.00040854
0.000408409
0.000408736
0.000409489
0.000410539
0.000412233
0.000414462
0.000417293
0.00042059
0.000424716
0.000433258
0.000442048
0.000444375
0.000447557
0.000455804
0.000465636
0.000477123
0.00048904
0.000502157
0.000515977
0.000534023
0.000551433
0.000569655
0.000589133
0.000611466
0.000634478
0.000653816
0.000671023
0.000684504
0.00069309
0.000697288
0.000682688
0.000667001
0.000663568
0.00063205
0.000621667
0.000607156
0.000579971
0.000569323
0.000544397
0.000539435
0.000521645
0.000515713
0.000497401
0.000495041
0.000481752
0.000482501
0.000473997
0.000475443
0.000465649
0.000468322
0.000463178
0.00046814
0.000465373
0.000472456
0.000469845
0.000476163
0.000475435
0.000484461
0.000485283
0.000495198
0.000496892
0.00050856
0.000511584
0.000524546
0.000527276
0.000540674
0.000548585
0.000569281
0.00057822
0.000598249
0.000607577
0.000627982
0.000634612
0.000657021
0.000670769
0.000700994
0.000710328
0.000730604
0.000724938
0.00075713
0.000768195
0.000794386
0.000780752
0.000782704
0.000707533
0.000741054
0.000668552
0.00079325
0.00128949
0.00247379
0.00416253
0.00565075
0.00659655
0.00668576
0.00497636
0.00310686
0.00268424
0.00272303
0.00287549
0.00280623
0.00215594
0.00224298
0.00215894
0.00211095
0.00200207
0.00193611
0.00187123
0.00182824
0.00178394
0.0017373
0.00169797
0.00167744
0.00166309
0.00166619
0.00166579
0.0016674
0.00166855
0.00167336
0.00167682
0.00167694
0.00167454
0.00166984
0.00165381
0.00162873
0.00161382
0.00159762
0.00156217
0.00154863
0.00157194
0.00160346
0.00164217
0.00169122
0.0017587
0.00190291
0.00226888
0.00283219
0.00326136
0.00350944
0.00379705
0.00403753
0.0043372
0.00468626
0.00507769
0.0056447
0.00658931
0.00756997
0.00808937
0.00850182
0.00909358
0.009706
0.0105361
0.011568
0.0132731
0.0149279
0.0153521
0.0151586
0.0158564
0.0155233
0.0148945
0.0143089
0.012956
0.0119289
0.0113951
0.0103807
0.00935089
0.00826564
0.00668335
0.00430879
0.00190377
0.000988314
0.000806581
0.000692048
0.000632579
0.000581539
0.000534154
0.000490352
0.00047603
0.000466853
0.000440442
0.000410374
0.000397173
0.000394237
0.000389931
0.000385086
0.000386094
0.000392596
0.000401755
0.000413348
0.000426822
0.000442009
0.000459949
0.000478833
0.000500962
0.000526922
0.000561367
0.000597294
0.000628008
0.00066592
0.000720157
0.000785685
0.000857404
0.000928939
0.00100056
0.00107031
0.00114101
0.00120891
0.00127926
0.00134182
0.00139923
0.00145166
0.00150533
0.00155381
0.00160563
0.00164724
0.00169024
0.00171527
0.00174695
0.00175013
0.00177225
0.00176464
0.00177813
0.00176278
0.00177992
0.00175338
0.00176139
0.0017273
0.00173527
0.00169448
0.00170958
0.00167657
0.00170177
0.00168743
0.00175153
0.00177805
0.00187764
0.00194625
0.00207272
0.00218204
0.00229597
0.0024431
0.00246707
0.0026752
0.00265253
0.00266008
0.00261052
0.00243441
0.00224805
0.00196719
0.00168082
0.00147088
0.00121266
0.00104394
0.000804982
0.000563768
0.000378556
0.000296752
0.000265659
0.000256419
0.000267402
0.000282948
0.000307212
0.00032837
0.000354182
0.000374863
0.000410776
0.00042934
0.00049544
0.000501698
0.00063326
0.000753813
0.000757356
0.00041153
0.000416322
0.000331828
0.000331826
0.000416189
0.000411427
0.000757051
0.000753571
0.00063292
0.000501364
0.000495256
0.000429117
0.000410624
0.000374572
0.000354043
0.00032821
0.000307077
0.000282929
0.000267538
0.00025691
0.000266782
0.000297681
0.000378074
0.000555373
0.000775969
0.000992788
0.0011452
0.00137543
0.00156044
0.00179311
0.00199786
0.00208124
0.00214101
0.00205026
0.00201047
0.00191643
0.00171376
0.00160956
0.00147212
0.0013967
0.00129908
0.00124162
0.00116885
0.00112363
0.00106943
0.00103069
0.00098785
0.000953548
0.000917725
0.000886625
0.000857525
0.000830194
0.000805066
0.0007802
0.000759591
0.000736429
0.000716965
0.000697292
0.000683877
0.000665906
0.000651775
0.000633647
0.000620403
0.000605867
0.000594287
0.000580109
0.00057044
0.000558525
0.000549186
0.000538429
0.00053032
0.000520479
0.000512558
0.000503952
0.0004965
0.00048877
0.0004821
0.000475161
0.000468952
0.000462911
0.000457233
0.000452011
0.000447011
0.000442142
0.000437714
0.000433429
0.000429826
0.00042625
0.000423053
0.000420062
0.000417324
0.000414859
0.000412711
0.000411158
0.000409948
0.000409031
0.000408555
0.000408434
0.000408768
0.00040952
0.000410566
0.00041226
0.000414481
0.000417301
0.000420599
0.000424747
0.000433254
0.00044197
0.000444335
0.000447624
0.0004558
0.000465574
0.000477043
0.000488931
0.000502026
0.000515827
0.000533811
0.000551156
0.000569285
0.000588784
0.000610922
0.000633854
0.000653048
0.000670306
0.000683207
0.000692075
0.000696318
0.00068173
0.00066639
0.000662871
0.000631735
0.000621148
0.000606705
0.00057966
0.000569103
0.000544228
0.000539273
0.000521408
0.000515571
0.000497284
0.000494968
0.000481635
0.000482393
0.000473742
0.000475204
0.000465422
0.000468134
0.000462864
0.000467809
0.000464883
0.000471867
0.000469162
0.000475506
0.000474623
0.000483533
0.000484158
0.000493973
0.000495458
0.00050694
0.000509652
0.000522359
0.000525044
0.000538423
0.000545666
0.000565388
0.00057358
0.000592712
0.000600858
0.000620393
0.000626774
0.000648331
0.000658955
0.000683117
0.000683918
0.000702959
0.000708722
0.000733063
0.000712334
0.000707301
0.000673945
0.000686867
0.000669102
0.000646985
0.000625661
0.000720943
0.00108945
0.00147371
0.00242723
0.00349933
0.00427155
0.00501045
0.00426454
0.0028615
0.00245213
0.00261159
0.002857
0.00276348
0.00211307
0.00221929
0.00214934
0.00210998
0.00199848
0.00193731
0.0018729
0.00182835
0.00178378
0.00173696
0.00169708
0.00167744
0.00166328
0.00166576
0.0016651
0.00166681
0.00166761
0.00167238
0.00167598
0.00167584
0.00167382
0.00166895
0.00165277
0.00162777
0.00161335
0.00159692
0.00156138
0.00154848
0.00157218
0.00160337
0.0016419
0.00169057
0.00175819
0.00190241
0.00226867
0.00283388
0.00325892
0.00350503
0.00379225
0.0040324
0.00433272
0.00468202
0.00507321
0.00564086
0.00658514
0.00756366
0.00807907
0.00849127
0.00908257
0.00969565
0.0105262
0.0115606
0.013263
0.0149146
0.0153423
0.0151353
0.0158347
0.0155133
0.0148837
0.0142991
0.0129465
0.0119192
0.0113843
0.0103686
0.0093419
0.00825408
0.00666812
0.00429288
0.0018871
0.000977801
0.000803885
0.000691138
0.000631487
0.000580184
0.000533946
0.000490749
0.000475783
0.000465336
0.000439719
0.00041066
0.000397404
0.000393741
0.000389222
0.000384844
0.00038614
0.00039254
0.000401724
0.000413381
0.000426913
0.000442085
0.000460065
0.000479088
0.000501434
0.000527586
0.000561773
0.000596919
0.000627853
0.000665954
0.000720353
0.000786115
0.000857597
0.000928734
0.00100013
0.00106959
0.00114006
0.00120758
0.00127697
0.00133882
0.00139634
0.00144916
0.00150365
0.00155259
0.00160427
0.00164551
0.00168773
0.00171215
0.00174397
0.00174742
0.00177082
0.00176373
0.00177845
0.00176376
0.00178117
0.00175537
0.00176505
0.00173266
0.00174392
0.00170448
0.00172463
0.00169392
0.00172473
0.00171523
0.00178627
0.00181629
0.00192433
0.00199717
0.00213536
0.00224683
0.00239189
0.00253786
0.00262411
0.00285478
0.00284068
0.00294583
0.00287545
0.0027514
0.00247214
0.00221133
0.0018948
0.0015362
0.00125786
0.00107344
0.00081755
0.000578057
0.000380471
0.000299422
0.00026753
0.000256791
0.000267152
0.000283691
0.000307895
0.000331002
0.000355644
0.000377322
0.000410165
0.000430293
0.000494697
0.000506183
0.000632433
0.000757795
0.000756022
0.00041079
0.000414538
0.000331467
0.000331407
0.000414432
0.000410636
0.000755655
0.000757691
0.000632525
0.000505953
0.000494312
0.00042999
0.000409962
0.000377013
0.00035533
0.000330738
0.000307573
0.000283877
0.000267743
0.000258254
0.000269456
0.000301259
0.000380711
0.000558098
0.000764187
0.000963469
0.00111786
0.00132983
0.00154125
0.00176371
0.00191374
0.00203362
0.00205904
0.00204051
0.00188094
0.00186567
0.00165367
0.00158061
0.00144406
0.00138064
0.00128408
0.00123308
0.00116053
0.00111915
0.00106451
0.00102806
0.000984877
0.000951794
0.000916018
0.000885512
0.000856541
0.00082943
0.000804485
0.000779746
0.000759171
0.000736132
0.000716898
0.000697191
0.000683681
0.000665628
0.000651568
0.000633507
0.000620382
0.000605756
0.000594254
0.000580082
0.000570449
0.000558493
0.000549223
0.000538437
0.000530346
0.000520493
0.000512607
0.000503988
0.000496557
0.000488825
0.000482167
0.000475232
0.000469035
0.000462995
0.000457324
0.0004521
0.000447086
0.000442215
0.000437754
0.000433472
0.000429817
0.000426238
0.000423036
0.000420042
0.000417323
0.000414856
0.000412728
0.000411217
0.000410009
0.000409068
0.000408592
0.000408435
0.000408739
0.000409487
0.000410546
0.000412241
0.00041449
0.000417325
0.00042062
0.000424759
0.000433254
0.000441905
0.000444271
0.000447508
0.000455818
0.000465542
0.000476969
0.000488837
0.000501895
0.000515692
0.000533622
0.000550852
0.000569017
0.000588313
0.000610554
0.000633304
0.000652562
0.000669482
0.00068324
0.000691093
0.000694789
0.000680391
0.000664531
0.000660923
0.000629903
0.000619352
0.00060482
0.000577984
0.000567348
0.000542721
0.000537648
0.00051995
0.000514021
0.000495962
0.000493538
0.000480395
0.000481001
0.000472484
0.000473814
0.000464227
0.000466795
0.000461652
0.000466435
0.000463595
0.000470382
0.00046778
0.000473979
0.000473181
0.000481874
0.000482536
0.000492136
0.000493652
0.0005049
0.000507654
0.000520129
0.000522834
0.000535992
0.000543077
0.000562211
0.000570069
0.000588644
0.000596524
0.000615546
0.000621721
0.00064226
0.000652152
0.000676613
0.00068227
0.000701084
0.000697575
0.000718761
0.000722705
0.000735926
0.00073333
0.000697784
0.000678419
0.000658374
0.000622175
0.000728575
0.0010032
0.00150341
0.00220099
0.00331967
0.00402529
0.00465773
0.00393919
0.00282393
0.00245913
0.00249855
0.00265454
0.00262568
0.00207789
0.00220875
0.00212503
0.00208378
0.00198354
0.00191526
0.00185779
0.00182246
0.00177759
0.00173102
0.00169299
0.00167259
0.00165876
0.00166265
0.00166304
0.0016646
0.00166569
0.00167071
0.00167403
0.00167433
0.00167175
0.00166833
0.00165279
0.00162775
0.00161281
0.00159697
0.00156044
0.00154605
0.00156968
0.00160214
0.00164104
0.00169055
0.00175635
0.00189904
0.00226741
0.00283479
0.0032631
0.00350581
0.00379204
0.00403125
0.00433097
0.00468223
0.00507323
0.00563876
0.00658693
0.00757204
0.00808549
0.00849181
0.0090818
0.00969322
0.0105243
0.0115558
0.0132592
0.0149306
0.0153561
0.0151289
0.0158386
0.0155296
0.0149015
0.014326
0.0129713
0.0119423
0.0114116
0.0103841
0.00934373
0.00826661
0.00669789
0.0043261
0.00190523
0.000980416
0.000800433
0.00068933
0.000630046
0.000578897
0.000533214
0.000490236
0.000475003
0.000464315
0.00043907
0.00041039
0.00039723
0.000393505
0.000389122
0.000385079
0.000386346
0.000392732
0.000401814
0.00041343
0.00042695
0.000442073
0.000460113
0.000479216
0.000501478
0.000527365
0.000561627
0.00059776
0.000629657
0.000668923
0.000722865
0.000787051
0.000857073
0.000928008
0.000998735
0.00106876
0.00113944
0.00120747
0.00127698
0.00133918
0.00139684
0.00144984
0.00150419
0.00155302
0.0016044
0.00164528
0.00168796
0.00171223
0.00174379
0.0017485
0.00177131
0.00176577
0.00178113
0.00176651
0.00178293
0.00175805
0.00176818
0.00173587
0.00174609
0.00170983
0.00172718
0.0017009
0.00173408
0.00173071
0.00179801
0.00183696
0.001941
0.00202517
0.00215905
0.00228658
0.00242296
0.00258058
0.00268318
0.00286185
0.00297932
0.0029864
0.00304435
0.00279937
0.00255549
0.00221431
0.00185732
0.0016158
0.00130925
0.00111195
0.000839449
0.000575244
0.000379725
0.000295865
0.000264581
0.000255834
0.000267234
0.000282937
0.000307377
0.000328466
0.000354317
0.000375058
0.000410895
0.000429488
0.000495493
0.000501953
0.00063355
0.000754028
0.000757693
0.000411647
0.00041648
0.000331819
0.000331836
0.000416064
0.000411328
0.000756779
0.000753409
0.000632643
0.000501198
0.000495522
0.000429039
0.000410682
0.00037446
0.000353923
0.000328148
0.000307005
0.000282938
0.00026772
0.00025754
0.000267622
0.000298663
0.000378364
0.000548089
0.000750044
0.000946772
0.00108566
0.00128984
0.00144847
0.00162043
0.00176156
0.00180357
0.00183375
0.00180309
0.00174441
0.00170363
0.00157468
0.0015177
0.00140885
0.00135632
0.00126998
0.00122357
0.0011558
0.00111547
0.00106247
0.00102639
0.00098401
0.000951076
0.000915895
0.000885774
0.00085681
0.000829736
0.000804952
0.000780268
0.000759456
0.000736658
0.000717851
0.000698175
0.000683972
0.00066585
0.000651679
0.000634001
0.000620866
0.000606204
0.000594579
0.000580644
0.000570837
0.000558903
0.000549562
0.000538843
0.000530632
0.000520825
0.000512888
0.000504283
0.000496815
0.000489099
0.000482384
0.00047546
0.000469224
0.000463189
0.000457503
0.000452266
0.000447251
0.000442375
0.00043796
0.000433663
0.000430085
0.000426472
0.000423262
0.000420248
0.000417478
0.000414997
0.000412828
0.000411229
0.000410011
0.000409109
0.000408627
0.000408544
0.000408885
0.000409621
0.000410646
0.000412327
0.000414511
0.000417296
0.000420575
0.000424781
0.000433251
0.000441808
0.00044419
0.000447687
0.000455705
0.000465392
0.000476822
0.000488648
0.000501682
0.00051545
0.000533327
0.000550529
0.000568478
0.000588023
0.000609814
0.000632679
0.000651645
0.000668992
0.000681006
0.000690555
0.000694786
0.000680192
0.000665422
0.000661801
0.000631248
0.000620309
0.000606047
0.000579148
0.000568712
0.000543914
0.000538952
0.000520969
0.000515252
0.000496991
0.000494723
0.000481313
0.000482049
0.00047318
0.000474647
0.000464862
0.000467577
0.000462124
0.000467
0.000463828
0.00047063
0.000467775
0.0004741
0.000472989
0.000481671
0.000482004
0.000491603
0.000492799
0.000503954
0.0005063
0.000518625
0.000521154
0.000534308
0.000540679
0.000559059
0.000566231
0.000584236
0.000591152
0.000609411
0.000614772
0.000634276
0.00064146
0.000662086
0.000661708
0.000678651
0.000677644
0.000696904
0.000677219
0.000695886
0.000663809
0.000689383
0.000611624
0.000649127
0.000627915
0.000722764
0.000871276
0.00136689
0.00171324
0.00248658
0.00305094
0.00373898
0.00345258
0.00260481
0.00227283
0.00238839
0.00263396
0.00259004
0.00203439
0.00216262
0.00209576
0.00207318
0.00197163
0.00192218
0.0018602
0.00182582
0.00177666
0.00173335
0.00169194
0.00167574
0.00166206
0.00166403
0.00166333
0.00166522
0.00166502
0.0016696
0.001673
0.00167229
0.00167087
0.00166647
0.00165033
0.00162553
0.00161242
0.0015954
0.00155837
0.00154608
0.00157112
0.00160239
0.00164091
0.00168891
0.00175474
0.00189653
0.00226786
0.00284041
0.00326439
0.00350402
0.00378849
0.00402779
0.00432927
0.00468005
0.0050708
0.00563806
0.00658951
0.00757896
0.00808394
0.0084885
0.00907766
0.00969125
0.0105224
0.0115571
0.0132658
0.0149372
0.0153629
0.0151205
0.0158288
0.0155428
0.0149195
0.0143526
0.0129948
0.0119604
0.0114339
0.0103942
0.00935171
0.00827653
0.00671256
0.00434588
0.00189946
0.000963152
0.000792501
0.000686519
0.000628335
0.000577317
0.000532599
0.000490225
0.00047466
0.000463021
0.000438359
0.000410571
0.000397579
0.000393392
0.000388781
0.000385005
0.000386616
0.000393038
0.000402182
0.000413837
0.000427365
0.000442612
0.000460707
0.000479901
0.000502117
0.000527902
0.000561607
0.000597269
0.000630253
0.000669805
0.000724257
0.000788985
0.000858736
0.000929087
0.000999639
0.00106902
0.00113931
0.00120687
0.00127541
0.00133719
0.00139517
0.00144863
0.00150366
0.00155267
0.00160424
0.00164483
0.00168755
0.00171222
0.00174523
0.0017508
0.001775
0.00177017
0.00178722
0.00177381
0.00179102
0.0017674
0.00178018
0.00174974
0.00176442
0.00172987
0.001754
0.00172852
0.00176885
0.00176674
0.0018458
0.00188363
0.00200209
0.00208372
0.00223732
0.00235638
0.00252746
0.00266557
0.00281999
0.00298009
0.00306013
0.00312765
0.00311588
0.00295442
0.0027159
0.00237505
0.00203801
0.00166269
0.00135329
0.00113109
0.000844112
0.000586517
0.000382749
0.000298829
0.000266544
0.000256123
0.000266863
0.000283634
0.000308072
0.000331241
0.00035583
0.000377552
0.000410279
0.000430538
0.000494973
0.000506358
0.000632439
0.000757867
0.000756187
0.00041087
0.000414582
0.00033149
0.000331384
0.000414368
0.000410565
0.000755461
0.000757631
0.000632549
0.000505764
0.000493864
0.000429783
0.00040972
0.00037681
0.00035516
0.000330601
0.000307388
0.000283961
0.000268004
0.000258887
0.000270599
0.000302318
0.000380754
0.000547338
0.000737457
0.000915544
0.00106272
0.0012518
0.00143177
0.00161366
0.00171694
0.00179639
0.00178633
0.00177827
0.00167663
0.00166301
0.00152806
0.00149142
0.00137977
0.00133869
0.0012515
0.00121231
0.00114403
0.00110838
0.00105499
0.00102195
0.000979106
0.000948135
0.000912781
0.000883859
0.000854779
0.000828468
0.00080363
0.000779456
0.000758586
0.000736162
0.00071748
0.00069782
0.000683594
0.000665418
0.000651465
0.000633777
0.000620858
0.000606016
0.000594614
0.000580566
0.000570889
0.000558834
0.00054965
0.000538814
0.000530697
0.000520827
0.000512977
0.000504315
0.000496907
0.000489161
0.000482495
0.000475556
0.00046936
0.000463313
0.00045764
0.00045239
0.000447339
0.000442453
0.000437942
0.000433653
0.000429929
0.000426347
0.000423127
0.000420138
0.000417432
0.000414961
0.00041286
0.000411374
0.000410136
0.000409161
0.000408666
0.000408467
0.000408742
0.000409487
0.000410563
0.000412263
0.000414545
0.000417376
0.000420656
0.000424816
0.000433253
0.000441696
0.00044409
0.000447427
0.00045583
0.000465368
0.000476719
0.000488512
0.000501481
0.00051525
0.000533029
0.00055002
0.000568108
0.000587194
0.000609343
0.0006318
0.000650997
0.000667599
0.000681621
0.000688721
0.000691939
0.000677696
0.000661776
0.000658014
0.000627592
0.000616837
0.000602346
0.000575891
0.000565299
0.000540996
0.000535827
0.000518225
0.000512344
0.000494543
0.000492089
0.000479078
0.000479574
0.000471015
0.00047228
0.000462878
0.000465393
0.000460217
0.000464877
0.00046192
0.000468477
0.000465844
0.000471989
0.000471066
0.000479511
0.000479978
0.000489359
0.000490667
0.000501593
0.000504031
0.000516111
0.000518703
0.000531647
0.000537945
0.000555807
0.000562742
0.00058028
0.000587044
0.000604842
0.00061016
0.000628985
0.000636222
0.000656996
0.000659935
0.000675947
0.000671914
0.000686661
0.000684633
0.000688513
0.000679646
0.000648813
0.000632538
0.000629611
0.000605449
0.000689041
0.000833167
0.00119443
0.00154527
0.00238189
0.00287238
0.00352373
0.00321175
0.00257104
0.00226898
0.00229798
0.00242634
0.00242271
0.00197921
0.00214741
0.00206571
0.00203796
0.001952
0.00189335
0.00185495
0.00181534
0.0017742
0.00172588
0.00168884
0.001667
0.00166124
0.00165913
0.00166194
0.00166268
0.00166418
0.00166746
0.00166988
0.00166974
0.00166767
0.00166572
0.00165114
0.00162601
0.00161156
0.00159577
0.00155711
0.00154169
0.00156645
0.0016002
0.0016395
0.00168916
0.00175289
0.00189159
0.00226618
0.00284781
0.00327101
0.00350623
0.0037888
0.00402678
0.00432722
0.00468069
0.00507083
0.00563787
0.006597
0.00759385
0.00809364
0.00849068
0.00907879
0.00969034
0.0105226
0.0115572
0.0132701
0.0149667
0.0153892
0.0151182
0.0158401
0.015575
0.0149592
0.014407
0.0130444
0.0120079
0.0114885
0.0104335
0.00936945
0.00830273
0.00675914
0.00440366
0.00192101
0.00096025
0.000785689
0.000683075
0.000626033
0.000575416
0.000531462
0.000489346
0.00047333
0.00046146
0.000437251
0.000409911
0.000397114
0.000393074
0.000388706
0.000385153
0.000386814
0.000393186
0.000402272
0.000413819
0.000427302
0.000442517
0.000460699
0.000479964
0.000502105
0.000527804
0.00056154
0.000598284
0.000633361
0.000674241
0.000728597
0.000792135
0.000860975
0.000930213
0.00100047
0.00106918
0.00113942
0.00120689
0.00127535
0.00133726
0.00139536
0.00144886
0.0015035
0.00155234
0.00160345
0.00164389
0.00168694
0.00171194
0.00174495
0.00175267
0.00177688
0.00177329
0.00179071
0.00177798
0.0017952
0.00177279
0.00178657
0.00175724
0.00177328
0.00174251
0.0017678
0.00174712
0.0017909
0.00179538
0.00187417
0.00192025
0.00203688
0.00212958
0.00227886
0.00241213
0.00257495
0.00272857
0.00287331
0.00301989
0.0031295
0.00314865
0.00319308
0.00296211
0.00275027
0.00239029
0.00200968
0.00173453
0.00140099
0.00116557
0.000863717
0.000582005
0.00037822
0.000294733
0.000263582
0.00025537
0.000267058
0.000282903
0.000307508
0.000328506
0.000354434
0.0003752
0.000411032
0.000429578
0.000495536
0.000502195
0.000633796
0.000754195
0.000758013
0.000411746
0.000416623
0.000331825
0.000331836
0.000415953
0.000411223
0.000756499
0.000753209
0.000632383
0.000500956
0.000495453
0.000428903
0.000410562
0.00037429
0.000353785
0.000328074
0.000306873
0.000282947
0.000267945
0.000258074
0.00026868
0.000299829
0.000378681
0.000539923
0.000723889
0.000899599
0.00103249
0.00121412
0.00135251
0.00149173
0.00158944
0.00162807
0.00163851
0.00162982
0.00157914
0.00154995
0.00146522
0.00142766
0.00134283
0.00130563
0.00123157
0.00119554
0.00113405
0.00109985
0.00104989
0.00101714
0.000976308
0.000945395
0.000911512
0.000882585
0.000854337
0.000827784
0.000803647
0.000779301
0.000758711
0.000736328
0.000718067
0.00069844
0.000683753
0.000665666
0.000651521
0.000634276
0.000621234
0.000606557
0.000594919
0.000581226
0.000571281
0.000559373
0.00055002
0.000539343
0.000531037
0.000521278
0.000513318
0.000504723
0.00049723
0.00048953
0.000482763
0.000475856
0.000469589
0.000463564
0.000457862
0.000452607
0.000447572
0.000442687
0.000438294
0.000433979
0.000430435
0.000426767
0.000423542
0.000420496
0.00041768
0.000415179
0.000412985
0.000411321
0.00041009
0.000409211
0.000408722
0.000408693
0.000409035
0.000409749
0.000410746
0.000412412
0.000414548
0.000417279
0.000420532
0.000424827
0.000433248
0.000441548
0.000443941
0.000447751
0.000455574
0.000465109
0.000476485
0.000488219
0.000501167
0.000514901
0.000532637
0.000549627
0.000567352
0.000586942
0.000608335
0.000631106
0.000649823
0.000667242
0.000678251
0.000688354
0.000692572
0.000677944
0.000663716
0.000660023
0.000630171
0.000618776
0.000604673
0.000578008
0.000567661
0.00054302
0.000537998
0.000519932
0.000514305
0.00049615
0.000493889
0.000480462
0.000481115
0.000472066
0.000473492
0.000463781
0.000466454
0.000460862
0.000465617
0.000462246
0.000468819
0.000465859
0.00047212
0.000470818
0.000479239
0.000479317
0.000488668
0.000489603
0.000500397
0.000502385
0.000514285
0.000516611
0.000529438
0.000534962
0.000552041
0.000558185
0.00057502
0.000580699
0.000597568
0.000601709
0.000619169
0.000623478
0.000640962
0.000638807
0.00065302
0.000647136
0.000661356
0.000640306
0.000653548
0.000618636
0.000641248
0.00057791
0.000615745
0.000578049
0.000654443
0.000747009
0.00109387
0.00129944
0.0018329
0.00225968
0.00282783
0.00278129
0.00233296
0.00208866
0.00216456
0.00237801
0.00237782
0.00193797
0.00208296
0.00201693
0.0020198
0.00193535
0.00190016
0.00184333
0.00180988
0.00177208
0.00172122
0.00168733
0.00166258
0.00166255
0.00165815
0.00166451
0.001662
0.00166482
0.00166691
0.00167065
0.00166856
0.0016675
0.00166461
0.00164979
0.00162407
0.0016118
0.00159403
0.0015546
0.00154231
0.00156827
0.00160036
0.00163885
0.00168645
0.00174978
0.00188622
0.00226464
0.00286098
0.00327483
0.0035069
0.00378666
0.0040251
0.00432701
0.00468081
0.00507058
0.00563861
0.00660721
0.00761348
0.00810073
0.00849419
0.00908107
0.0096968
0.010528
0.0115668
0.0132907
0.0149929
0.0154153
0.0151237
0.0158425
0.015613
0.0150101
0.0144732
0.0131096
0.0120584
0.0115477
0.0104705
0.00939559
0.00833748
0.00680853
0.00446709
0.00193773
0.00094479
0.00077448
0.000678194
0.000623261
0.000573171
0.000530119
0.000488655
0.000472441
0.000459814
0.000436263
0.000409782
0.000397163
0.000392829
0.000388348
0.000385106
0.00038703
0.0003935
0.000402615
0.000414185
0.000427625
0.000442857
0.000461089
0.000480516
0.00050275
0.000528143
0.000561113
0.000597332
0.000633387
0.000675306
0.000730004
0.000792964
0.000861007
0.000929863
0.000999479
0.00106831
0.00113831
0.00120573
0.00127358
0.00133549
0.00139412
0.0014481
0.00150327
0.00155215
0.00160336
0.00164356
0.00168681
0.00171264
0.0017472
0.0017561
0.00178225
0.00177995
0.00179932
0.00178754
0.00180568
0.00178451
0.00180111
0.00177386
0.00179408
0.0017652
0.00179638
0.00177663
0.00182796
0.00183185
0.00192197
0.00196481
0.00209785
0.00218161
0.00235236
0.00247084
0.0026608
0.00278988
0.00296768
0.00307798
0.00319501
0.0032207
0.00322933
0.00305485
0.0028554
0.00256077
0.00220525
0.00180436
0.00145314
0.00119172
0.000871373
0.000595091
0.00038356
0.00029842
0.000265653
0.000255458
0.000266599
0.000283602
0.000308226
0.000331434
0.000355987
0.000377843
0.000410438
0.000430761
0.000495192
0.000506531
0.000632445
0.000757979
0.000756347
0.000410953
0.000414621
0.000331508
0.000331365
0.000414295
0.000410489
0.000755262
0.000757578
0.00063256
0.000505612
0.000493653
0.000429596
0.000409605
0.000376635
0.000355006
0.00033044
0.000307258
0.000284056
0.000268297
0.000259659
0.000271753
0.000303586
0.000381078
0.000537965
0.000711015
0.000871341
0.00101284
0.00118048
0.00133683
0.00148217
0.00155896
0.00161348
0.00159626
0.00160078
0.00152705
0.00152089
0.00142327
0.00140441
0.00131339
0.00128786
0.00121104
0.0011826
0.00111976
0.00109074
0.00103988
0.00101104
0.000969472
0.000941343
0.000906805
0.000879899
0.000851101
0.000826042
0.000801439
0.00077817
0.000757251
0.000735592
0.000717275
0.00069785
0.000683196
0.000665095
0.000651274
0.000633927
0.000621225
0.000606275
0.000594995
0.000581059
0.000571365
0.000559239
0.000550143
0.000539264
0.000531139
0.000521252
0.000513436
0.000504735
0.000497351
0.000489592
0.000482914
0.000475973
0.000469779
0.000463723
0.000458041
0.000452765
0.000447667
0.000442759
0.000438191
0.000433895
0.00043009
0.000426497
0.00042326
0.000420273
0.000417578
0.000415102
0.000413034
0.000411572
0.000410299
0.000409284
0.000408771
0.000408529
0.00040876
0.000409499
0.000410596
0.0004123
0.000414611
0.000417425
0.000420683
0.000424892
0.000433257
0.000441396
0.000443814
0.000447334
0.000455804
0.000465109
0.000476364
0.000488058
0.000500916
0.000514659
0.000532254
0.000548948
0.000566926
0.000585792
0.000607799
0.000629962
0.000649101
0.000665333
0.00067961
0.000686265
0.000688896
0.000674965
0.000659119
0.00065517
0.000625508
0.000614445
0.00060007
0.000574
0.000563502
0.000539498
0.000534262
0.000516686
0.000510902
0.000493308
0.000490852
0.000477907
0.000478314
0.000469632
0.000470844
0.000461568
0.000464038
0.000458755
0.000463286
0.000460148
0.000466466
0.000463742
0.000469816
0.000468714
0.000476891
0.000477108
0.000486236
0.000487281
0.000497841
0.000499912
0.000511567
0.000513958
0.000526568
0.000532013
0.000548597
0.000554538
0.000570925
0.000576489
0.000592922
0.000597122
0.000614035
0.000618713
0.000636069
0.000636464
0.000649388
0.000643861
0.000652997
0.000645952
0.000643464
0.000628947
0.000605675
0.000586608
0.000594672
0.000565091
0.000630459
0.000726007
0.000977134
0.00116518
0.00179786
0.00212767
0.00269738
0.00260505
0.00229605
0.00207149
0.00209255
0.0021904
0.00220406
0.0018665
0.00205763
0.00198243
0.00197844
0.00191223
0.00185881
0.00183034
0.00180795
0.00176542
0.00172241
0.00168074
0.00166258
0.0016546
0.00165912
0.0016589
0.00166235
0.00166029
0.00166386
0.00166528
0.0016661
0.00166249
0.00166314
0.00164868
0.00162472
0.00161015
0.00159385
0.00155261
0.00153615
0.00156253
0.00159757
0.00163743
0.00168494
0.00174724
0.0018792
0.00226195
0.00287372
0.00328316
0.00350929
0.00378619
0.00402323
0.00432369
0.00468163
0.00507163
0.00563947
0.00662012
0.00763945
0.0081146
0.00849951
0.00908487
0.00969896
0.010532
0.0115737
0.0133049
0.0150407
0.0154531
0.0151289
0.0158613
0.0156647
0.0150752
0.0145592
0.0131898
0.0121342
0.0116335
0.0105358
0.00942926
0.00837788
0.00687477
0.00455261
0.0019643
0.000934258
0.000763882
0.000672832
0.000619986
0.000570615
0.000528628
0.000487468
0.000470578
0.000457741
0.000434745
0.000408752
0.000396376
0.000392369
0.000388332
0.00038545
0.000387365
0.000393734
0.000402752
0.000414189
0.000427511
0.000442656
0.000460941
0.000480424
0.000502584
0.000527913
0.000560635
0.000597347
0.000635225
0.000678255
0.000733125
0.000795745
0.000863005
0.000930806
0.00100014
0.00106835
0.00113836
0.00120573
0.00127368
0.0013358
0.00139468
0.00144879
0.00150358
0.00155223
0.00160303
0.00164322
0.00168649
0.00171266
0.00174731
0.00175865
0.00178514
0.00178446
0.00180424
0.00179369
0.00181187
0.00179224
0.00180916
0.00178398
0.00180526
0.00178055
0.00181335
0.00179953
0.00185318
0.00186423
0.00195308
0.00200455
0.00213181
0.00222601
0.00238438
0.00251667
0.00268668
0.00283023
0.00298675
0.00310295
0.00321168