/*--------------------------------*- C++ -*----------------------------------*\
| =========                 |                                                 |
| \\      /  F ield         | OpenFOAM: The Open Source CFD Toolbox           |
|  \\    /   O peration     | Version:  v2006                                 |
|   \\  /    A nd           | Website:  www.openfoam.com                      |
|    \\/     M anipulation  |                                                 |
\*---------------------------------------------------------------------------*/
FoamFile
{
    version     2.0;
    format      ascii;
    class       volScalarField;
    location    "200";
    object      rho;
}
// * * * * * * * * * * * * * * * * * * * * * * * * * * * * * * * * * * * * * //

dimensions      [1 -3 0 0 0 0 0];


internalField   nonuniform List<scalar> 
93840
(
1.01068
0.990553
0.978875
0.968978
0.971626
0.963719
0.965424
0.9682
0.974814
0.982092
0.98546
0.992437
0.99567
1.00086
1.00747
1.00856
1.01502
1.01631
1.02513
1.02301
1.02444
1.0192
1.01472
1.00291
0.992691
0.986042
0.986092
0.995852
0.989539
0.990273
0.978815
0.993691
0.962391
0.983765
0.981001
0.993178
0.99054
0.999071
0.998011
1.00446
1.00383
1.00819
1.00815
1.0113
1.01215
1.01527
1.0159
1.0184
1.01936
1.02149
1.02247
1.02406
1.02558
1.02735
1.02822
1.02868
1.02818
1.03038
1.0318
1.03311
1.03311
1.03456
1.03482
1.03508
1.03549
1.03604
1.0359
1.0354
1.03549
1.03541
1.03526
1.03513
1.03469
1.03394
1.03349
1.03304
1.03208
1.03135
1.03009
1.02916
1.02797
1.02685
1.0255
1.02393
1.02214
1.02052
1.01851
1.01671
1.01468
1.01263
1.01005
1.00733
1.00458
1.00163
0.998455
0.994977
0.991399
0.987758
0.98399
0.980033
0.976024
0.972136
0.968163
0.961565
0.954914
0.952533
0.95039
0.945183
0.939611
0.934111
0.928802
0.923629
0.918807
0.913025
0.908089
0.903219
0.899212
0.894233
0.890881
0.887279
0.885645
0.883203
0.88411
0.88296
0.887413
0.889973
0.894345
0.901079
0.904534
0.910544
0.917705
0.923799
0.928876
0.936179
0.940676
0.947741
0.953527
0.959985
0.965239
0.971419
0.974935
0.982004
0.986611
0.992661
0.99624
1.00276
1.00612
1.01225
1.01653
1.02367
1.02751
1.03431
1.03845
1.04562
1.05041
1.05737
1.06282
1.06985
1.07567
1.0833
1.08958
1.09597
1.10251
1.10971
1.11719
1.12509
1.1331
1.14283
1.15052
1.15988
1.1693
1.18011
1.191
1.20065
1.21203
1.22498
1.23836
1.25341
1.2652
1.2817
1.2816
1.28633
1.24276
1.18942
1.07482
0.977634
0.854988
0.781871
0.756066
0.767659
0.706598
0.65796
0.627672
0.597957
0.581976
0.567792
0.562059
0.555998
0.546696
0.546449
0.545522
0.543589
0.542663
0.542645
0.543221
0.544274
0.544426
0.54396
0.545248
0.54484
0.544088
0.543169
0.541992
0.539401
0.539212
0.539274
0.538398
0.537052
0.535373
0.533254
0.530961
0.527584
0.527232
0.526312
0.525395
0.524588
0.52395
0.523643
0.523404
0.523355
0.521556
0.5165
0.514615
0.510063
0.508242
0.506572
0.504845
0.503344
0.50137
0.49989
0.498725
0.497097
0.494791
0.492961
0.490129
0.487912
0.484775
0.47933
0.480251
0.478462
0.470023
0.469361
0.466747
0.461825
0.455968
0.457538
0.446683
0.446019
0.436418
0.445616
0.461629
0.541293
0.624726
0.659738
0.67578
0.692905
0.705927
0.721543
0.732616
0.745941
0.756534
0.769114
0.778577
0.789001
0.797512
0.806644
0.813986
0.821295
0.827147
0.832871
0.837443
0.842054
0.845859
0.849999
0.853494
0.857479
0.860685
0.864044
0.86653
0.869294
0.872815
0.876758
0.879652
0.881455
0.882116
0.883214
0.884547
0.886133
0.887784
0.889516
0.891275
0.893022
0.894865
0.896547
0.8984
0.899955
0.901814
0.903208
0.905095
0.906387
0.908229
0.909373
0.911069
0.911841
0.913266
0.913582
0.914771
0.914714
0.91577
0.915442
0.916443
0.915871
0.916766
0.915886
0.916946
0.916161
0.917175
0.916102
0.917254
0.915904
0.917958
0.916479
0.91917
0.916287
0.923986
0.912315
0.917799
0.936889
0.928862
0.962592
0.987785
0.993704
0.994856
0.998669
1.00359
1.01507
1.01838
1.02465
1.02281
1.02527
1.01684
1.01497
1.00861
1.00754
1.00079
0.995746
0.992345
0.985164
0.982567
0.974678
0.967787
0.964786
0.963948
0.971463
0.969196
0.979087
0.990302
1.01019
1.01007
0.990361
0.979025
0.969295
0.971736
0.964186
0.964786
0.968145
0.974756
0.982465
0.985253
0.992315
0.995872
1.001
1.00761
1.00846
1.0152
1.01668
1.0251
1.02309
1.02575
1.02099
1.01756
1.00573
0.999269
0.991284
0.98756
0.98829
0.980716
0.972057
0.9834
0.973494
0.983665
0.982328
0.989355
0.990804
0.995599
0.997931
1.00119
1.00397
1.00573
1.00833
1.0095
1.01178
1.01326
1.01551
1.01667
1.01859
1.01998
1.02161
1.0228
1.0243
1.02569
1.027
1.02814
1.02879
1.02849
1.03029
1.03151
1.03273
1.03294
1.03404
1.03446
1.0347
1.03518
1.03558
1.03559
1.03509
1.0352
1.03507
1.035
1.03484
1.03444
1.0338
1.03336
1.03291
1.03203
1.03135
1.03022
1.02931
1.0282
1.02712
1.02587
1.0244
1.02272
1.02118
1.01929
1.01758
1.01566
1.01373
1.01132
1.00878
1.0062
1.00344
1.00048
0.997229
0.99389
0.990487
0.986985
0.983319
0.979615
0.976014
0.972379
0.966397
0.960271
0.957985
0.956012
0.951356
0.946349
0.941377
0.936574
0.93191
0.927597
0.92243
0.918045
0.913709
0.910172
0.90578
0.902855
0.899708
0.898341
0.896229
0.897304
0.896279
0.900932
0.90331
0.907432
0.91366
0.917505
0.923004
0.930193
0.935992
0.940801
0.948172
0.952404
0.959086
0.964848
0.970918
0.975848
0.982016
0.985299
0.992189
0.99661
1.0026
1.00603
1.0124
1.01542
1.02146
1.02526
1.03208
1.03554
1.04216
1.046
1.05266
1.05722
1.06344
1.06861
1.07503
1.08054
1.08744
1.09319
1.0988
1.10467
1.11083
1.11778
1.12503
1.13224
1.14123
1.14844
1.15725
1.16639
1.17664
1.18721
1.1965
1.20809
1.21975
1.23218
1.24462
1.25541
1.26732
1.26547
1.26378
1.23566
1.20093
1.12556
1.05043
0.958399
0.877673
0.829651
0.824223
0.769667
0.714054
0.681279
0.651903
0.634288
0.615852
0.60728
0.600132
0.590472
0.587692
0.586508
0.585095
0.583404
0.582572
0.582163
0.582391
0.581999
0.580848
0.581508
0.580191
0.578727
0.577397
0.57527
0.572682
0.570864
0.570435
0.569353
0.56737
0.565163
0.562914
0.560084
0.556212
0.555096
0.554041
0.552397
0.551353
0.550121
0.549633
0.54891
0.548695
0.546181
0.541203
0.538822
0.534221
0.531924
0.530195
0.527816
0.526076
0.52413
0.52255
0.520621
0.519221
0.516951
0.514676
0.511284
0.509381
0.506559
0.502105
0.503115
0.501549
0.492784
0.492813
0.489615
0.485417
0.479124
0.480863
0.469569
0.469944
0.458934
0.471207
0.48117
0.558381
0.635401
0.656989
0.671051
0.688254
0.701578
0.717203
0.728619
0.741971
0.75293
0.765611
0.775415
0.785914
0.794708
0.803864
0.811362
0.818639
0.824555
0.830278
0.834973
0.839637
0.843564
0.847726
0.851272
0.855203
0.858397
0.861799
0.864385
0.867189
0.870428
0.873903
0.876617
0.87849
0.879435
0.880729
0.882152
0.883792
0.885439
0.887152
0.888874
0.890573
0.892351
0.893966
0.895747
0.897224
0.898997
0.90031
0.902085
0.903281
0.905039
0.906084
0.907763
0.908521
0.909996
0.910344
0.911618
0.911611
0.912755
0.912464
0.913502
0.912935
0.913877
0.912987
0.914035
0.913231
0.914405
0.913194
0.914663
0.91314
0.914677
0.913696
0.915509
0.914566
0.919607
0.90539
0.925458
0.916591
0.920593
0.935619
0.950311
0.95781
0.978406
0.990678
1.00053
1.01138
1.01524
1.02272
1.02252
1.02517
1.01612
1.01521
1.00854
1.00735
1.00058
0.995646
0.992318
0.985285
0.982349
0.97489
0.967997
0.965413
0.963772
0.971655
0.968945
0.978848
0.99051
1.01067
1.01073
0.990616
0.979005
0.969235
0.97136
0.964014
0.965546
0.967989
0.974967
0.982403
0.985488
0.992504
0.995626
1.00103
1.00762
1.00838
1.0155
1.01637
1.02472
1.02318
1.02569
1.02269
1.0183
1.00688
0.997922
0.991436
0.988839
0.991297
0.987625
0.985504
0.986861
0.98814
0.979918
0.9933
0.988051
0.997351
0.995558
1.00186
1.00199
1.00643
1.00698
1.01001
1.01091
1.01321
1.01456
1.01665
1.01791
1.01955
1.0212
1.02264
1.02389
1.02542
1.02671
1.02804
1.02932
1.02983
1.02956
1.03099
1.03259
1.03362
1.0337
1.03481
1.0356
1.0356
1.03611
1.03659
1.03664
1.03613
1.03623
1.0361
1.03612
1.03598
1.0356
1.03499
1.03456
1.03418
1.03343
1.03274
1.03167
1.03082
1.02976
1.02875
1.02757
1.02617
1.02458
1.02312
1.02133
1.0197
1.01789
1.01605
1.01377
1.01136
1.00894
1.00633
1.00354
1.00048
0.997348
0.994155
0.990875
0.987446
0.98399
0.980647
0.977268
0.971617
0.965855
0.963836
0.962114
0.957795
0.953162
0.948559
0.944105
0.939791
0.935791
0.930978
0.926882
0.922844
0.919534
0.915371
0.912612
0.909575
0.908292
0.906234
0.907031
0.90632
0.910306
0.912743
0.917267
0.923543
0.926333
0.932243
0.93908
0.944627
0.948907
0.956166
0.960046
0.96681
0.97202
0.978209
0.98328
0.988809
0.992372
0.99853
1.00301
1.00813
1.01173
1.01749
1.02075
1.02626
1.03008
1.0366
1.03971
1.04578
1.0493
1.0558
1.05986
1.06652
1.07103
1.07729
1.08221
1.08875
1.09435
1.1004
1.10647
1.1129
1.11973
1.12658
1.13444
1.1433
1.15092
1.16013
1.16871
1.17899
1.18928
1.19977
1.21133
1.22394
1.23692
1.24825
1.26236
1.27612
1.27367
1.28037
1.2415
1.20804
1.13436
1.05912
0.959146
0.886142
0.837581
0.827369
0.773162
0.726008
0.693844
0.660019
0.64006
0.619799
0.613006
0.606725
0.597104
0.598214
0.594444
0.595446
0.596231
0.597167
0.597937
0.599139
0.600576
0.600735
0.602191
0.601694
0.600977
0.600185
0.598591
0.596358
0.594551
0.593997
0.59305
0.591708
0.589142
0.586697
0.583468
0.579629
0.578586
0.577044
0.575632
0.574605
0.572954
0.572194
0.571263
0.570859
0.568067
0.562551
0.560139
0.555224
0.55256
0.550277
0.548315
0.546532
0.543996
0.54176
0.540437
0.538378
0.535383
0.533662
0.530372
0.528039
0.524761
0.519498
0.520391
0.518937
0.509889
0.509409
0.507292
0.501408
0.496409
0.497428
0.487574
0.48486
0.477966
0.483232
0.49832
0.57
0.646997
0.658674
0.669045
0.68559
0.69902
0.71447
0.726127
0.739515
0.750769
0.763487
0.773558
0.784129
0.793125
0.802223
0.809746
0.816916
0.822828
0.828521
0.833302
0.838016
0.84206
0.846242
0.84984
0.853713
0.856903
0.860344
0.863034
0.865912
0.868872
0.871904
0.87436
0.876334
0.877654
0.879196
0.880731
0.882443
0.884116
0.885841
0.887555
0.889232
0.890974
0.892552
0.894288
0.895717
0.897433
0.898686
0.900383
0.901503
0.903184
0.904153
0.905789
0.906524
0.908017
0.908406
0.909743
0.90981
0.911026
0.910827
0.911959
0.911504
0.912533
0.911729
0.912886
0.912126
0.913487
0.91229
0.913993
0.912784
0.91471
0.913718
0.916918
0.914225
0.91893
0.915326
0.915748
0.923342
0.915534
0.929749
0.936577
0.944272
0.968026
0.98942
1.00075
1.01234
1.01413
1.02256
1.0222
1.02541
1.01682
1.01531
1.00854
1.00749
1.00059
0.995788
0.992365
0.985219
0.982502
0.974554
0.967694
0.964757
0.964136
0.971617
0.969117
0.978982
0.990259
1.01023
1.01009
0.990414
0.979048
0.969002
0.971413
0.964191
0.964679
0.967978
0.974819
0.982224
0.985257
0.992491
0.996161
1.00103
1.00762
1.00832
1.0154
1.01648
1.02483
1.02331
1.02648
1.02354
1.02056
1.00953
1.00294
0.996273
0.992236
0.991685
0.989215
0.983113
0.98782
0.98677
0.988792
0.989882
0.993924
0.995929
0.999144
1.00151
1.00403
1.0065
1.00835
1.01049
1.01211
1.01392
1.01555
1.01734
1.01881
1.0203
1.02211
1.02345
1.02477
1.02631
1.02745
1.02867
1.03023
1.03092
1.03077
1.03179
1.03344
1.03448
1.03464
1.03535
1.03672
1.03656
1.03712
1.03746
1.03778
1.03724
1.03739
1.03723
1.03734
1.03718
1.0368
1.03637
1.0359
1.03551
1.03484
1.03422
1.03326
1.03239
1.03141
1.03043
1.02931
1.02799
1.02646
1.02507
1.02335
1.0218
1.02005
1.0183
1.01614
1.01385
1.01155
1.00907
1.00643
1.00352
1.00054
0.997507
0.994402
0.991158
0.9879
0.984731
0.98154
0.976214
0.970768
0.968885
0.967258
0.963233
0.958896
0.954549
0.950315
0.94621
0.942398
0.93778
0.933858
0.929944
0.92668
0.922639
0.919849
0.916871
0.915387
0.91332
0.914369
0.91311
0.917516
0.919934
0.923626
0.929361
0.932719
0.938135
0.945196
0.9505
0.95486
0.962084
0.965814
0.972078
0.977356
0.983068
0.987283
0.993176
0.99587
1.00235
1.00631
1.01186
1.01511
1.02072
1.02328
1.02871
1.03158
1.03807
1.04071
1.04701
1.05028
1.05648
1.06062
1.06631
1.07111
1.0774
1.08301
1.08932
1.09517
1.10081
1.10666
1.11301
1.11984
1.12774
1.13516
1.14407
1.15156
1.16081
1.17018
1.18031
1.19058
1.20045
1.21196
1.22367
1.23534
1.24806
1.25643
1.2673
1.2672
1.26503
1.24399
1.21074
1.15365
1.08856
1.00757
0.934474
0.87861
0.858361
0.806014
0.752788
0.716217
0.683812
0.661751
0.639148
0.627068
0.620938
0.608671
0.605628
0.603297
0.603219
0.60356
0.603816
0.605539
0.606001
0.607747
0.609253
0.610532
0.611746
0.6118
0.611468
0.611023
0.610728
0.609139
0.609117
0.609123
0.608234
0.606527
0.604192
0.601385
0.597324
0.596109
0.594733
0.592634
0.591821
0.590222
0.589403
0.588382
0.588237
0.585077
0.579229
0.576944
0.571958
0.568827
0.566494
0.563937
0.561846
0.559848
0.557125
0.555184
0.553524
0.550892
0.547862
0.544108
0.541462
0.538789
0.533066
0.534137
0.531907
0.523122
0.521645
0.519852
0.513564
0.509423
0.507882
0.499916
0.496087
0.490732
0.494388
0.50987
0.581372
0.658604
0.666996
0.67123
0.685585
0.698464
0.713513
0.725114
0.738397
0.749774
0.762507
0.772714
0.783299
0.792403
0.801482
0.809016
0.816102
0.821983
0.827619
0.832417
0.83713
0.841229
0.845422
0.84905
0.852895
0.856064
0.859498
0.862231
0.86518
0.868021
0.870803
0.873055
0.87503
0.876534
0.878222
0.87985
0.88163
0.883346
0.885094
0.886821
0.888493
0.890229
0.891786
0.893507
0.894902
0.896594
0.897801
0.89946
0.900517
0.902153
0.903053
0.904659
0.905351
0.906864
0.907259
0.908649
0.908722
0.909994
0.909817
0.911068
0.910678
0.911821
0.911046
0.912256
0.911545
0.912766
0.91184
0.913323
0.911803
0.913676
0.912452
0.915199
0.91328
0.917207
0.9136
0.918062
0.915925
0.918314
0.922355
0.927171
0.927849
0.949176
0.975208
0.996396
1.00816
1.01082
1.02029
1.02172
1.02535
1.01624
1.01516
1.00855
1.00712
1.00049
0.99556
0.992431
0.985177
0.982437
0.974897
0.968133
0.965393
0.963698
0.971577
0.969134
0.978833
0.990457
1.01063
1.0106
0.990589
0.979064
0.969203
0.971623
0.964065
0.965555
0.968227
0.975181
0.982176
0.985421
0.99223
0.996062
1.00094
1.00775
1.00825
1.01574
1.01629
1.02491
1.02302
1.02631
1.02465
1.02105
1.01044
1.00211
0.997065
0.99406
0.995007
0.993091
0.992278
0.991089
0.993033
0.990327
0.996665
0.99459
1.00103
0.999831
1.00518
1.00493
1.00913
1.00947
1.01243
1.01339
1.01554
1.01678
1.01873
1.02009
1.02149
1.02344
1.02471
1.02602
1.02764
1.02863
1.02988
1.03157
1.0322
1.03211
1.03284
1.0348
1.03563
1.0357
1.03658
1.03808
1.0379
1.03839
1.03886
1.03913
1.03867
1.03878
1.0387
1.03885
1.03868
1.03833
1.03793
1.0375
1.03714
1.03659
1.03598
1.03504
1.03424
1.03328
1.03236
1.03129
1.03003
1.02858
1.02725
1.02561
1.02413
1.02245
1.02079
1.01872
1.01654
1.01435
1.01199
1.00948
1.00672
1.00389
1.001
0.998048
0.994962
0.991863
0.988857
0.985808
0.980702
0.975538
0.973804
0.972287
0.968415
0.964281
0.960097
0.955999
0.952014
0.948256
0.943733
0.939842
0.935961
0.93267
0.928557
0.925746
0.922632
0.921119
0.91894
0.919614
0.918868
0.922683
0.924412
0.928611
0.934514
0.93709
0.942986
0.949176
0.954288
0.958455
0.965163
0.968376
0.975106
0.979739
0.985414
0.990448
0.995255
0.998582
1.00414
1.00821
1.01278
1.01587
1.02141
1.02426
1.0295
1.03293
1.03917
1.04222
1.04773
1.05092
1.05733
1.06125
1.06764
1.07225
1.07871
1.08369
1.09022
1.09573
1.10175
1.10811
1.11448
1.12164
1.12812
1.13622
1.14458
1.1522
1.1616
1.17065
1.18151
1.19126
1.20152
1.21317
1.22475
1.23676
1.24598
1.25739
1.26824
1.26433
1.26342
1.23652
1.20963
1.15002
1.08663
1.00455
0.936141
0.881743
0.857846
0.804531
0.759821
0.725882
0.689296
0.664215
0.638645
0.629961
0.62035
0.611866
0.608294
0.603327
0.603024
0.603056
0.604401
0.604558
0.606038
0.607357
0.608737
0.610064
0.611368
0.611177
0.612248
0.611262
0.611422
0.611535
0.612117
0.612516
0.612307
0.611854
0.611199
0.609357
0.606192
0.605957
0.605242
0.604288
0.604076
0.60317
0.602501
0.601934
0.601806
0.599302
0.593585
0.591065
0.585713
0.583055
0.580142
0.578089
0.575504
0.573487
0.570785
0.569058
0.566445
0.563931
0.561342
0.557664
0.55452
0.551797
0.545206
0.546366
0.544075
0.535078
0.532678
0.532507
0.523787
0.520847
0.519736
0.512126
0.506035
0.501813
0.503984
0.519149
0.589818
0.66845
0.675806
0.675251
0.687066
0.699092
0.713582
0.725022
0.738164
0.749596
0.762285
0.772558
0.783134
0.792304
0.801344
0.808862
0.815852
0.821687
0.827261
0.832044
0.836729
0.840838
0.845009
0.848635
0.852429
0.855585
0.859
0.861756
0.864729
0.867416
0.870012
0.872127
0.874102
0.875745
0.877549
0.879244
0.881068
0.882808
0.884571
0.886301
0.887969
0.889691
0.891234
0.892932
0.894308
0.895969
0.89715
0.898765
0.899783
0.901368
0.902224
0.903778
0.904443
0.90592
0.906322
0.907697
0.907817
0.90909
0.908981
0.910235
0.909947
0.91112
0.910488
0.911733
0.911154
0.912448
0.911769
0.913338
0.911759
0.913799
0.912701
0.915002
0.913773
0.916356
0.914656
0.917378
0.918882
0.917641
0.924008
0.929015
0.930142
0.943458
0.968554
0.992727
1.00733
1.00887
1.01971
1.02127
1.02538
1.01668
1.01508
1.00865
1.0074
1.0004
0.995742
0.992234
0.985164
0.982419
0.974578
0.967825
0.964829
0.964489
0.971763
0.969066
0.979009
0.990247
1.01019
1.01023
0.990471
0.979147
0.969225
0.971405
0.964225
0.96468
0.967958
0.974884
0.98248
0.985165
0.992379
0.996018
1.00106
1.00757
1.00818
1.01562
1.01616
1.02502
1.02296
1.02689
1.02516
1.02305
1.01337
1.00661
1.00082
0.997242
0.995981
0.994666
0.991388
0.993987
0.992984
0.995694
0.996094
0.99971
1.00032
1.00365
1.00488
1.00771
1.00938
1.0115
1.01307
1.01505
1.01653
1.01813
1.01981
1.02132
1.02262
1.02468
1.0259
1.02722
1.02897
1.02972
1.03089
1.0328
1.0336
1.03356
1.03409
1.03612
1.0368
1.0369
1.03764
1.03958
1.03926
1.03972
1.04021
1.04066
1.04019
1.04031
1.04031
1.04049
1.0403
1.03998
1.03973
1.03925
1.03887
1.03841
1.03787
1.03705
1.03621
1.03534
1.03444
1.03344
1.03225
1.03085
1.02959
1.02801
1.0266
1.02499
1.0234
1.02145
1.01939
1.01731
1.01508
1.01268
1.01004
1.00734
1.00458
1.00175
0.998808
0.995857
0.992978
0.990054
0.985183
0.980255
0.978599
0.977043
0.973342
0.969356
0.965268
0.961217
0.957255
0.953494
0.948943
0.94504
0.941075
0.937634
0.933484
0.930466
0.927325
0.92551
0.923319
0.924066
0.923031
0.92621
0.92862
0.932
0.937031
0.940012
0.945299
0.951736
0.956661
0.960721
0.967384
0.9703
0.976582
0.98097
0.986423
0.989956
0.995637
0.997553
1.00413
1.00757
1.01317
1.016
1.0218
1.02398
1.02955
1.03187
1.03869
1.04159
1.04781
1.05097
1.05719
1.0613
1.06717
1.072
1.0783
1.08381
1.09056
1.09634
1.10237
1.10801
1.11494
1.12114
1.12945
1.13657
1.14527
1.15287
1.16199
1.17128
1.18151
1.19199
1.20146
1.21256
1.22304
1.23423
1.24591
1.25206
1.26446
1.26085
1.25956
1.23799
1.20994
1.16568
1.10884
1.0424
0.973482
0.919133
0.886556
0.837688
0.787155
0.750197
0.710943
0.688368
0.660891
0.645985
0.6343
0.624163
0.615579
0.613054
0.609487
0.610575
0.609212
0.610604
0.610871
0.61213
0.613724
0.614746
0.615
0.616151
0.61532
0.616182
0.615622
0.615021
0.616347
0.61649
0.615667
0.615958
0.615341
0.614399
0.610606
0.611137
0.610479
0.61015
0.610576
0.610948
0.610697
0.61079
0.611525
0.609842
0.603918
0.602999
0.5975
0.594491
0.591959
0.590037
0.587408
0.585559
0.582203
0.581382
0.578393
0.575784
0.572694
0.569495
0.565263
0.563147
0.556189
0.55775
0.554892
0.546354
0.542892
0.542519
0.534235
0.531526
0.527578
0.521171
0.515805
0.511524
0.51301
0.527555
0.597573
0.679258
0.688191
0.682741
0.690883
0.701368
0.714897
0.725868
0.738675
0.750028
0.762623
0.772895
0.783418
0.792611
0.801634
0.809163
0.816097
0.82189
0.827392
0.832128
0.836757
0.840838
0.844973
0.848577
0.852325
0.855447
0.858819
0.861567
0.864539
0.867143
0.869622
0.87164
0.873575
0.875256
0.877109
0.878848
0.880702
0.882469
0.884241
0.885982
0.887643
0.889364
0.890887
0.892579
0.893927
0.895579
0.896724
0.898321
0.899288
0.900849
0.901647
0.90318
0.903786
0.905261
0.905618
0.907025
0.907128
0.908462
0.908327
0.909641
0.909319
0.910577
0.909909
0.911236
0.910436
0.91184
0.911223
0.912721
0.911536
0.913148
0.911653
0.913954
0.913001
0.915657
0.913905
0.917062
0.917311
0.918754
0.921937
0.925187
0.924412
0.933952
0.954207
0.983001
1.00039
1.00476
1.01674
1.02077
1.02507
1.0163
1.01517
1.00876
1.0069
1.00025
0.995401
0.992486
0.985009
0.982091
0.974871
0.967964
0.965346
0.963867
0.971594
0.969069
0.978848
0.990362
1.01054
1.01051
0.990644
0.979068
0.968835
0.971638
0.964047
0.96559
0.968346
0.975121
0.982269
0.985162
0.992638
0.996049
1.00108
1.00778
1.00816
1.0158
1.01615
1.02458
1.02309
1.02642
1.02576
1.02343
1.01446
1.00687
1.0022
0.999878
0.999879
0.998622
0.997802
0.997204
0.998389
0.998037
1.00175
1.00101
1.00535
1.0047
1.00899
1.00883
1.01248
1.01282
1.01551
1.0165
1.01859
1.01957
1.02163
1.02291
1.02428
1.02634
1.02759
1.02887
1.03057
1.0313
1.03224
1.03423
1.03509
1.03531
1.03571
1.03776
1.03831
1.03843
1.03941
1.04106
1.04103
1.04137
1.04196
1.04223
1.04202
1.0421
1.04221
1.04236
1.04215
1.04187
1.04164
1.04128
1.04087
1.04049
1.04003
1.03917
1.03842
1.03757
1.03673
1.03576
1.03464
1.03332
1.03211
1.03061
1.02926
1.02773
1.02622
1.02435
1.02238
1.02041
1.01827
1.01599
1.01347
1.01088
1.00823
1.0055
1.00266
0.999812
0.997033
0.994174
0.989447
0.984729
0.98309
0.981518
0.977819
0.973899
0.969803
0.965721
0.961704
0.957811
0.953179
0.949148
0.945061
0.941462
0.937093
0.934005
0.93058
0.928746
0.926363
0.926899
0.925318
0.929276
0.93037
0.933801
0.939192
0.941333
0.947213
0.952362
0.957307
0.961584
0.96729
0.970272
0.976721
0.980951
0.986379
0.991571
0.995997
0.999415
1.00491
1.00854
1.01365
1.0163
1.022
1.02481
1.03034
1.03389
1.03969
1.04281
1.04842
1.05169
1.05816
1.0624
1.06877
1.07316
1.07959
1.08499
1.09097
1.09672
1.10282
1.1095
1.11598
1.12282
1.12939
1.13717
1.14562
1.15362
1.16263
1.1716
1.18152
1.1917
1.20136
1.21303
1.22294
1.23382
1.24292
1.25115
1.26243
1.25429
1.25486
1.23143
1.20812
1.15844
1.10697
1.03445
0.973656
0.917399
0.88594
0.835342
0.791772
0.755046
0.716988
0.688865
0.660917
0.646897
0.636729
0.623441
0.621983
0.610021
0.610629
0.610664
0.610189
0.609475
0.610635
0.611498
0.612745
0.613743
0.614533
0.614524
0.61485
0.613633
0.614667
0.614075
0.614767
0.614342
0.61514
0.614164
0.614277
0.612809
0.61009
0.60933
0.609809
0.609113
0.610053
0.610064
0.611072
0.61103
0.612716
0.612218
0.607328
0.60641
0.602038
0.600705
0.597837
0.597265
0.595051
0.594312
0.591278
0.590545
0.587759
0.586344
0.582545
0.579435
0.575664
0.573975
0.566144
0.568023
0.564995
0.556506
0.55235
0.553757
0.543066
0.541458
0.53899
0.532279
0.524564
0.521013
0.521075
0.535038
0.604198
0.689256
0.700312
0.691264
0.696145
0.704824
0.717266
0.727685
0.740103
0.751289
0.763708
0.773903
0.784333
0.793509
0.80248
0.809991
0.816862
0.822612
0.828049
0.832728
0.837286
0.841309
0.84537
0.848919
0.85259
0.855674
0.858996
0.861729
0.864653
0.867116
0.869481
0.871437
0.873356
0.875071
0.876956
0.878711
0.880575
0.882338
0.88411
0.885839
0.887491
0.889188
0.890699
0.89236
0.893699
0.895315
0.896449
0.898002
0.898953
0.900461
0.901241
0.90271
0.903307
0.904716
0.905088
0.906428
0.906575
0.907849
0.907804
0.909063
0.908872
0.91005
0.909564
0.910863
0.910242
0.911667
0.911119
0.912509
0.911806
0.913267
0.912004
0.913981
0.913603
0.915325
0.914477
0.916972
0.917729
0.918226
0.922014
0.925182
0.92622
0.933065
0.949021
0.974427
0.995932
1.00113
1.01535
1.01961
1.02527
1.01652
1.01521
1.00888
1.00715
1.00024
0.995646
0.99212
0.985137
0.982575
0.97463
0.967824
0.964717
0.964414
0.971746
0.969083
0.978948
0.990218
1.01017
1.01029
0.990444
0.979018
0.968979
0.971319
0.964193
0.964784
0.968055
0.974911
0.982499
0.985238
0.992531
0.996502
1.00079
1.00803
1.00768
1.01569
1.01612
1.02471
1.02304
1.02686
1.02591
1.02449
1.01727
1.01093
1.00552
1.00272
1.00119
1.00074
0.998369
1.00077
0.999356
1.0026
1.00198
1.00546
1.00539
1.00863
1.00933
1.01191
1.01312
1.01528
1.01646
1.0185
1.01981
1.02141
1.02304
1.02462
1.02582
1.02797
1.02911
1.03043
1.03221
1.03286
1.03352
1.03556
1.03666
1.03699
1.03753
1.03944
1.03969
1.03999
1.04109
1.04265
1.04268
1.04315
1.04375
1.04404
1.04381
1.04393
1.04417
1.04432
1.0441
1.0439
1.04365
1.04336
1.04297
1.04265
1.04223
1.04147
1.04071
1.03993
1.03911
1.03821
1.03715
1.03587
1.03472
1.03328
1.032
1.03053
1.02907
1.02731
1.02545
1.02357
1.02153
1.01933
1.01689
1.01439
1.0118
1.00914
1.00639
1.00362
1.0009
0.998087
0.993463
0.98885
0.98719
0.985433
0.981762
0.977826
0.973651
0.969462
0.965318
0.961293
0.956421
0.952234
0.947848
0.943855
0.939162
0.935882
0.932089
0.93009
0.92693
0.928307
0.92614
0.930151
0.930351
0.935048
0.937967
0.942112
0.946048
0.953203
0.957033
0.962229
0.96792
0.971568
0.976856
0.981867
0.986568
0.990528
0.995995
0.998049
1.0047
1.00807
1.01372
1.01653
1.02235
1.02462
1.03023
1.03297
1.03944
1.04274
1.04847
1.05212
1.05786
1.06236
1.06848
1.07309
1.07928
1.08471
1.0918
1.09727
1.10358
1.10918
1.11633
1.12239
1.13103
1.13775
1.14574
1.15374
1.16284
1.17193
1.18204
1.19175
1.20113
1.21186
1.22144
1.23126
1.24175
1.24628
1.256
1.24992
1.25317
1.23134
1.20661
1.17031
1.1204
1.06637
1.00307
0.948883
0.913103
0.863959
0.817099
0.777079
0.739342
0.710581
0.685367
0.663711
0.650249
0.637459
0.628096
0.619632
0.619004
0.615726
0.616613
0.616062
0.616373
0.616147
0.617896
0.618318
0.619061
0.618093
0.619054
0.618119
0.618088
0.618365
0.617823
0.617461
0.618211
0.617482
0.617984
0.615688
0.612892
0.612111
0.612252
0.611539
0.612192
0.612711
0.612976
0.613416
0.614454
0.614446
0.609665
0.609961
0.604586
0.602998
0.601675
0.601013
0.598472
0.598812
0.59655
0.597332
0.593487
0.592827
0.590339
0.588094
0.582721
0.58167
0.574123
0.576297
0.573376
0.565237
0.560551
0.561363
0.552062
0.54998
0.544798
0.539317
0.533226
0.529327
0.528525
0.541872
0.609871
0.698711
0.714586
0.70303
0.704058
0.7104
0.721204
0.730676
0.742441
0.753302
0.765444
0.775482
0.785761
0.794869
0.803777
0.811275
0.818108
0.823823
0.829199
0.833813
0.838289
0.842229
0.846201
0.849673
0.85326
0.85628
0.85953
0.862233
0.865097
0.867455
0.869724
0.871627
0.873508
0.875201
0.877071
0.878823
0.880675
0.882438
0.884192
0.885916
0.887541
0.889228
0.890706
0.892357
0.893658
0.895268
0.896362
0.897908
0.898805
0.900307
0.901026
0.902494
0.903022
0.904445
0.904745
0.906112
0.906177
0.907497
0.907364
0.908724
0.908457
0.909756
0.909178
0.910533
0.909787
0.911219
0.910361
0.911829
0.91095
0.912617
0.911683
0.913401
0.912715
0.914892
0.914299
0.916806
0.916691
0.919054
0.920333
0.924094
0.924154
0.928864
0.940222
0.964009
0.986687
0.995931
1.01153
1.01866
1.02479
1.01585
1.0153
1.00901
1.00659
1.00025
0.995602
0.99246
0.984842
0.981892
0.974803
0.967909
0.965228
0.963875
0.97158
0.969023
0.978754
0.990287
1.01058
1.01049
0.990628
0.979079
0.969021
0.971677
0.964151
0.965636
0.968063
0.975131
0.982464
0.985125
0.992726
0.996334
1.00078
1.00798
1.00777
1.01601
1.01599
1.0246
1.02306
1.02704
1.02594
1.02469
1.01811
1.01222
1.00739
1.00561
1.00506
1.00454
1.00351
1.00399
1.00474
1.00492
1.00727
1.0072
1.01027
1.01029
1.0134
1.01355
1.01654
1.01694
1.01932
1.02016
1.02232
1.02312
1.02519
1.02648
1.02779
1.0298
1.03109
1.03241
1.03405
1.03485
1.03507
1.03705
1.03836
1.03894
1.03969
1.04127
1.04169
1.04194
1.04325
1.04428
1.04468
1.04507
1.04581
1.04584
1.04598
1.04606
1.04635
1.04644
1.04623
1.04612
1.04584
1.04569
1.04528
1.045
1.04466
1.04383
1.04316
1.0424
1.04163
1.04076
1.03974
1.03855
1.03745
1.03609
1.03485
1.03345
1.03206
1.03035
1.02856
1.02675
1.02477
1.02264
1.02026
1.01781
1.01527
1.01265
1.00992
1.00717
1.00445
1.00158
0.996952
0.992427
0.99062
0.988708
0.98487
0.980863
0.97644
0.972037
0.967607
0.963221
0.958017
0.953678
0.949096
0.944985
0.940244
0.936805
0.933114
0.930889
0.928138
0.928892
0.926602
0.931123
0.931336
0.935723
0.939964
0.942389
0.947817
0.953514
0.957385
0.962668
0.967214
0.97156
0.976855
0.982057
0.986329
0.992457
0.995978
0.999999
1.00576
1.00918
1.01431
1.01718
1.0221
1.02563
1.03099
1.03432
1.04018
1.04382
1.049
1.05292
1.05898
1.06344
1.06987
1.07443
1.08094
1.08625
1.0921
1.09775
1.10412
1.11046
1.11726
1.12348
1.13104
1.13822
1.14645
1.15458
1.16313
1.17228
1.18142
1.19137
1.20087
1.21142
1.22019
1.22995
1.23824
1.24569
1.25428
1.24539
1.24682
1.22475
1.2042
1.16101
1.1168
1.05713
1.00139
0.945794
0.909643
0.861945
0.821373
0.781948
0.744505
0.713628
0.684853
0.665382
0.651702
0.637517
0.63342
0.618953
0.621388
0.617635
0.617218
0.616857
0.616488
0.61648
0.61614
0.617542
0.617982
0.618535
0.617668
0.618244
0.617722
0.61812
0.616425
0.617315
0.617003
0.617053
0.616596
0.615799
0.611662
0.611857
0.611262
0.611079
0.611203
0.611838
0.612362
0.612659
0.613642
0.613945
0.609419
0.608536
0.60469
0.602718
0.600075
0.600328
0.599053
0.598761
0.596612
0.597218
0.595522
0.594292
0.591608
0.590881
0.586937
0.586863
0.578771
0.581873
0.579211
0.572055
0.567237
0.569862
0.558753
0.558204
0.554687
0.54878
0.540641
0.537388
0.535458
0.547958
0.613928
0.70719
0.728493
0.715236
0.713284
0.71715
0.726339
0.734834
0.745881
0.756296
0.76806
0.777844
0.787906
0.796896
0.805689
0.813119
0.819887
0.825564
0.830884
0.835435
0.839828
0.843677
0.847529
0.850898
0.854368
0.857311
0.860476
0.863138
0.865914
0.868116
0.870269
0.872114
0.873973
0.875655
0.877507
0.879232
0.881061
0.882789
0.884522
0.886208
0.887811
0.889451
0.890908
0.892507
0.893797
0.895354
0.896445
0.897933
0.89883
0.900267
0.90099
0.90238
0.902923
0.904258
0.904596
0.905861
0.905996
0.9072
0.907166
0.9084
0.908312
0.909494
0.909141
0.910268
0.909834
0.911058
0.910685
0.912109
0.911312
0.912607
0.912572
0.913981
0.913449
0.914882
0.915541
0.917166
0.917794
0.919231
0.920978
0.92339
0.924755
0.929017
0.939461
0.957457
0.980531
0.99075
1.00921
1.01692
1.02482
1.01617
1.01519
1.00906
1.00682
1.00015
0.995345
0.992226
0.98479
0.982684
0.974654
0.96764
0.964682
0.964208
0.971837
0.968677
0.979108
0.990152
1.01012
1.01019
0.990548
0.979106
0.968947
0.971558
0.963949
0.964713
0.967963
0.974979
0.9826
0.985092
0.992642
0.996446
1.00101
1.00801
1.00775
1.01598
1.01606
1.0249
1.02277
1.02728
1.02618
1.02503
1.02009
1.01575
1.01062
1.00857
1.00683
1.00702
1.00551
1.00724
1.00639
1.00866
1.00849
1.01114
1.01139
1.01395
1.01444
1.01674
1.01757
1.01971
1.02056
1.02254
1.02373
1.02545
1.02679
1.02862
1.02966
1.0318
1.03285
1.03428
1.03588
1.03683
1.03673
1.03854
1.04019
1.04083
1.04163
1.04318
1.04345
1.0439
1.04527
1.046
1.0465
1.04735
1.04787
1.04786
1.04795
1.04816
1.04848
1.04861
1.04844
1.04837
1.04801
1.04798
1.04765
1.0474
1.04702
1.04628
1.04563
1.04492
1.04418
1.04335
1.04239
1.04121
1.04016
1.03883
1.03765
1.03628
1.03493
1.0333
1.03157
1.02981
1.02788
1.02576
1.0234
1.02095
1.01839
1.01576
1.01301
1.01025
1.00748
1.00453
0.999779
0.995166
0.993154
0.990849
0.986543
0.982378
0.977758
0.973104