/*--------------------------------*- C++ -*----------------------------------*\
| =========                 |                                                 |
| \\      /  F ield         | OpenFOAM: The Open Source CFD Toolbox           |
|  \\    /   O peration     | Version:  v2006                                 |
|   \\  /    A nd           | Website:  www.openfoam.com                      |
|    \\/     M anipulation  |                                                 |
\*---------------------------------------------------------------------------*/
FoamFile
{
    version     2.0;
    format      ascii;
    class       volScalarField;
    location    "200";
    object      T;
}
// * * * * * * * * * * * * * * * * * * * * * * * * * * * * * * * * * * * * * //

dimensions      [0 0 0 1 0 0 0];


internalField   nonuniform List<scalar> 
93840
(
1.00554
0.999803
0.996919
0.992806
0.987862
0.987305
0.984829
0.991181
0.988899
0.992865
0.995048
0.993496
0.994774
0.996023
0.997149
0.999828
1.0008
1.00341
1.00488
1.00606
1.0076
1.01332
1.01889
1.02183
1.02225
1.02223
1.01893
1.0163
1.0116
1.01219
1.02023
1.02629
1.02658
1.02255
1.03198
1.0279
1.03428
1.03138
1.03603
1.03421
1.03748
1.03608
1.03856
1.03754
1.03977
1.03906
1.04103
1.04035
1.04207
1.0417
1.04303
1.04286
1.04402
1.04424
1.04509
1.04478
1.04508
1.04551
1.04646
1.04682
1.04709
1.04753
1.04795
1.04804
1.04844
1.04874
1.04893
1.04886
1.04914
1.04929
1.0495
1.04968
1.04979
1.04979
1.04991
1.05006
1.05003
1.05009
1.05
1.05001
1.04997
1.04997
1.04993
1.0498
1.04963
1.04953
1.04934
1.04923
1.04912
1.04902
1.0488
1.04853
1.04833
1.04806
1.04778
1.04737
1.04696
1.04652
1.04607
1.04553
1.04499
1.0445
1.04406
1.04249
1.04059
1.0404
1.04059
1.03948
1.03807
1.03663
1.03515
1.03366
1.03224
1.03031
1.0285
1.02667
1.02499
1.0228
1.02091
1.0189
1.0173
1.01531
1.0143
1.01258
1.01253
1.01224
1.01198
1.01321
1.01271
1.01329
1.01448
1.0152
1.01549
1.01691
1.01684
1.01813
1.01868
1.01976
1.02034
1.02134
1.02124
1.02253
1.02289
1.02383
1.02386
1.02496
1.02488
1.02584
1.02607
1.02738
1.02761
1.02897
1.02923
1.03061
1.03134
1.03259
1.03333
1.03481
1.03591
1.0375
1.03875
1.04001
1.04134
1.0429
1.04457
1.04648
1.04869
1.05141
1.0534
1.0562
1.05908
1.06237
1.06577
1.06917
1.0734
1.07823
1.08305
1.08845
1.09273
1.09773
1.09939
1.09252
1.08884
1.05803
1.03363
0.985098
0.946775
0.915094
0.913491
0.923316
0.898198
0.878513
0.869024
0.859637
0.857457
0.855388
0.858521
0.860366
0.861017
0.86649
0.870721
0.875222
0.879716
0.884284
0.889259
0.893627
0.897232
0.901412
0.90571
0.909321
0.911645
0.914582
0.917332
0.920179
0.923444
0.926049
0.928781
0.93156
0.933996
0.935736
0.936945
0.938276
0.94119
0.943588
0.946112
0.948838
0.951153
0.953227
0.955771
0.958167
0.958932
0.957623
0.958784
0.958402
0.960125
0.961213
0.962662
0.963428
0.964772
0.965323
0.967067
0.967169
0.968145
0.968197
0.968458
0.968755
0.969953
0.968135
0.973206
0.971148
0.969736
0.968757
0.973348
0.966421
0.971509
0.966673
0.970655
0.961904
0.971096
0.965362
0.99348
1.0438
1.10201
1.0981
1.08987
1.08824
1.08794
1.0866
1.08688
1.08653
1.08738
1.0871
1.08757
1.0873
1.0878
1.08716
1.08689
1.08595
1.08548
1.08487
1.08478
1.08455
1.08471
1.08452
1.08452
1.08407
1.08378
1.08364
1.08372
1.08392
1.08276
1.0807
1.07917
1.07889
1.07984
1.08068
1.08115
1.08153
1.08172
1.08182
1.08182
1.08173
1.08158
1.08135
1.08111
1.08079
1.08045
1.08003
1.07955
1.07902
1.07851
1.07791
1.0775
1.0771
1.07692
1.07679
1.07687
1.07694
1.0772
1.07746
1.07784
1.0782
1.07862
1.07897
1.07956
1.08004
1.08057
1.08095
1.08145
1.08182
1.08277
1.0832
1.08419
1.08412
1.08393
1.08632
1.07238
1.07306
1.06194
1.04056
1.02757
1.01688
1.01679
1.02101
1.02273
1.02031
1.01462
1.00804
1.00603
1.00474
1.00362
1.0008
0.999842
0.997189
0.995816
0.994896
0.993299
0.996001
0.991946
0.98877
0.991395
0.984648
0.987239
0.988383
0.992429
0.996959
0.999704
1.00538
1.00542
0.999701
0.996913
0.992242
0.988168
0.986974
0.984656
0.991063
0.988736
0.99214
0.996035
0.993357
0.99477
0.995868
0.99722
0.999769
1.00093
1.00335
1.00479
1.00585
1.00683
1.0117
1.01681
1.01974
1.02046
1.0213
1.0219
1.0233
1.02266
1.02236
1.02252
1.02326
1.02224
1.02657
1.02568
1.02938
1.0291
1.03167
1.03214
1.03365
1.0345
1.03519
1.03629
1.03661
1.03793
1.03818
1.03943
1.03955
1.04084
1.04096
1.04204
1.04225
1.0433
1.04357
1.04442
1.04445
1.04476
1.04527
1.04616
1.0466
1.04693
1.04741
1.04786
1.04799
1.04842
1.04872
1.04894
1.04889
1.04917
1.04931
1.04951
1.04968
1.04975
1.04976
1.04983
1.04994
1.04986
1.04989
1.04974
1.04969
1.04959
1.04951
1.04938
1.04918
1.04891
1.04872
1.04842
1.04822
1.04798
1.04775
1.04737
1.04694
1.04656
1.04609
1.04559
1.04495
1.0443
1.04359
1.04286
1.04201
1.04116
1.04031
1.03945
1.03738
1.03512
1.03465
1.0344
1.03274
1.03083
1.02882
1.02679
1.02472
1.02271
1.02014
1.01777
1.01534
1.01311
1.01033
1.00801
1.00554
1.00361
1.00129
1.00028
0.998354
0.998675
0.998253
0.998199
0.999493
0.999271
1.00019
1.00167
1.00262
1.00322
1.00492
1.00511
1.00668
1.0075
1.00886
1.00955
1.01086
1.01096
1.01252
1.01312
1.01438
1.01463
1.01604
1.01615
1.01754
1.01793
1.01969
1.02021
1.02207
1.02266
1.02458
1.02575
1.02742
1.02876
1.03093
1.03262
1.0349
1.03686
1.03891
1.04104
1.04341
1.04595
1.04886
1.05182
1.0553
1.05803
1.06156
1.06504
1.06907
1.07295
1.07635
1.08044
1.08461
1.08904
1.09354
1.09746
1.10057
1.10166
1.09941
1.08958
1.07358
1.05649
1.01726
0.981309
0.943374
0.924048
0.921908
0.896628
0.870606
0.854515
0.840325
0.831646
0.82364
0.821124
0.819898
0.816904
0.818693
0.820752
0.823989
0.827705
0.831379
0.835988
0.840366
0.844103
0.848584
0.853537
0.857726
0.860986
0.86413
0.86721
0.870567
0.874577
0.877374
0.880653
0.883354
0.886769
0.889004
0.89079
0.891953
0.895194
0.89778
0.9006
0.903515
0.906725
0.909019
0.91217
0.914866
0.916596
0.915381
0.916889
0.916312
0.918323
0.919464
0.921185
0.921866
0.923958
0.924602
0.926315
0.92682
0.928185
0.927899
0.928264
0.92797
0.928828
0.925139
0.929694
0.927402
0.925907
0.923354
0.928523
0.920568
0.925564
0.920095
0.924282
0.914157
0.924533
0.913997
0.953682
1.01093
1.08965
1.1047
1.09805
1.09575
1.09473
1.09322
1.09282
1.09227
1.09251
1.09202
1.09195
1.0915
1.09158
1.09089
1.0904
1.08947
1.0889
1.08825
1.08798
1.08766
1.08765
1.08743
1.08734
1.08696
1.08667
1.08646
1.0864
1.08655
1.08577
1.08429
1.08295
1.08256
1.08313
1.08371
1.08407
1.08438
1.08458
1.0847
1.08475
1.08472
1.08464
1.0845
1.08434
1.0841
1.08387
1.08353
1.08319
1.08277
1.08234
1.08186
1.08146
1.08108
1.08084
1.08065
1.08063
1.08067
1.08085
1.0811
1.08142
1.08177
1.08214
1.08249
1.08293
1.0834
1.08384
1.08411
1.08455
1.08474
1.08512
1.08552
1.08578
1.08564
1.08529
1.08377
1.08334
1.08498
1.07807
1.0661
1.06172
1.04493
1.0276
1.02333
1.02415
1.02263
1.01687
1.00926
1.00644
1.00492
1.00332
1.00084
0.999885
0.997108
0.995932
0.994638
0.993414
0.9952
0.99254
0.988762
0.991358
0.984795
0.987215
0.987835
0.992737
0.996944
0.999778
1.00554
1.0055
0.999847
0.996864
0.992542
0.988161
0.987068
0.984806
0.991389
0.988756
0.992578
0.995081
0.993526
0.994804
0.996096
0.997214
0.999696
1.00111
1.00332
1.00474
1.00588
1.00627
1.01013
1.01452
1.0177
1.01871
1.01978
1.02083
1.02188
1.02155
1.0207
1.02301
1.02297
1.02252
1.02455
1.0261
1.02683
1.02887
1.02937
1.03125
1.03174
1.03323
1.03356
1.03487
1.03515
1.03641
1.03678
1.0379
1.03818
1.03938
1.03967
1.04062
1.04104
1.04192
1.04234
1.04319
1.04334
1.04351
1.04402
1.04494
1.04542
1.04564
1.04618
1.04672
1.04684
1.0472
1.04757
1.04775
1.04772
1.04792
1.04807
1.04824
1.0484
1.04841
1.0484
1.04839
1.04849
1.04838
1.04836
1.04814
1.04805
1.04788
1.04774
1.04754
1.04727
1.04692
1.04665
1.04626
1.04596
1.04561
1.04527
1.04477
1.0442
1.04367
1.04304
1.04235
1.04151
1.04065
1.03972
1.03875
1.03765
1.03653
1.03539
1.03422
1.03183
1.02928
1.02847
1.02785
1.02583
1.02355
1.02114
1.01874
1.01629
1.01392
1.01098
1.00831
1.00557
1.0031
1.00009
0.997658
0.99504
0.9931
0.99079
0.98982
0.988068
0.988362
0.988111
0.988554
0.990029
0.989777
0.991091
0.992782
0.993825
0.994737
0.996446
0.996987
0.998737
0.999778
1.00148
1.00261
1.00398
1.00457
1.00619
1.00717
1.00848
1.00917
1.0107
1.01138
1.01294
1.01382
1.01594
1.01691
1.01893
1.0198
1.02214
1.02352
1.02573
1.0273
1.02967
1.03142
1.03387
1.03595
1.03809
1.04034
1.04281
1.04516
1.04763
1.05048
1.05366
1.05642
1.0598
1.06309
1.0671
1.07066
1.0742
1.07824
1.08299
1.0874
1.0919
1.09504
1.09849
1.09878
1.09563
1.09081
1.07331
1.04948
1.0142
0.980769
0.947612
0.93041
0.925673
0.900839
0.878456
0.863211
0.846008
0.83658
0.826006
0.822891
0.81982
0.814799
0.815525
0.813651
0.814288
0.815819
0.817064
0.818482
0.820269
0.821731
0.823978
0.826858
0.829191
0.831536
0.83358
0.835585
0.837688
0.841647
0.843961
0.846638
0.84899
0.852192
0.854328
0.85599
0.85689
0.860228
0.862367
0.865379
0.868028
0.87152
0.873821
0.877058
0.87969
0.882185
0.881213
0.883001
0.882559
0.884495
0.885753
0.888012
0.888921
0.89074
0.891604
0.893823
0.894446
0.895464
0.896162
0.896764
0.896398
0.89729
0.894443
0.898456
0.89754
0.895255
0.893633
0.89755
0.891206
0.894008
0.891483
0.891323
0.886445
0.888514
0.890396
0.918632
0.988125
1.06561
1.10097
1.10133
1.10007
1.09879
1.09743
1.0966
1.09592
1.09566
1.09506
1.09458
1.09399
1.09377
1.09313
1.09258
1.09177
1.09118
1.09057
1.09018
1.08979
1.08962
1.08935
1.08918
1.08885
1.08857
1.08831
1.08813
1.08817
1.08767
1.08671
1.0857
1.0852
1.08536
1.08566
1.08587
1.08607
1.08621
1.08631
1.08636
1.08635
1.0863
1.0862
1.08609
1.08591
1.08575
1.08548
1.08523
1.08489
1.08456
1.08417
1.08382
1.08346
1.08319
1.08296
1.08284
1.08279
1.08285
1.08299
1.0832
1.08345
1.08369
1.08392
1.08424
1.08456
1.08489
1.085
1.0853
1.08541
1.08555
1.08576
1.08609
1.0856
1.08561
1.08496
1.08442
1.08494
1.08059
1.07943
1.08069
1.06835
1.04345
1.02938
1.026
1.02441
1.01895
1.01032
1.0068
1.00498
1.00349
1.00091
0.999929
0.997158
0.995877
0.995008
0.993261
0.995896
0.991884
0.988827
0.991457
0.984715
0.987058
0.988282
0.992458
0.996937
0.99967
1.00539
1.00543
0.999739
0.996813
0.992384
0.988335
0.986923
0.984734
0.991286
0.988726
0.992399
0.99614
0.993345
0.9949
0.995983
0.997171
0.999655
1.00102
1.00341
1.00469
1.00578
1.00608
1.00915
1.01292
1.01589
1.01719
1.01793
1.01942
1.02069
1.02112
1.01981
1.02093
1.02199
1.02212
1.02374
1.02458
1.02631
1.02716
1.02861
1.0295
1.0307
1.03154
1.03242
1.03331
1.03394
1.03493
1.03549
1.03647
1.03687
1.038
1.03836
1.03926
1.03976
1.04054
1.04097
1.04185
1.04211
1.04228
1.04271
1.04359
1.0441
1.04432
1.04473
1.04543
1.0455
1.04585
1.04616
1.0464
1.04635
1.04652
1.04664
1.04679
1.04692
1.04688
1.0469
1.04683
1.04688
1.04673
1.04668
1.04644
1.04628
1.04606
1.04587
1.04561
1.04529
1.04488
1.04454
1.04408
1.0437
1.04327
1.04284
1.04223
1.04156
1.0409
1.04014
1.03931
1.03832
1.03729
1.03618
1.03503
1.03375
1.03244
1.03108
1.02967
1.02707
1.02434
1.02328
1.02235
1.02008
1.01758
1.01493
1.01231
1.00965
1.00707
1.00396
1.00119
0.99834
0.995788
0.992741
0.990358
0.987758
0.985885
0.98366
0.983018
0.98114
0.981839
0.981686
0.982144
0.983479
0.983705
0.985155
0.986977
0.988413
0.989354
0.991504
0.992187
0.994128
0.995383
0.997321
0.998269
1.00018
1.00073
1.00278
1.00392
1.00577
1.00666
1.00859
1.00942
1.01142
1.01229
1.0149
1.01608
1.01862
1.01954
1.02204
1.02361
1.02591
1.02773
1.03007
1.03198
1.03461
1.03686
1.03889
1.0409
1.04346
1.0459
1.04882
1.05136
1.05466
1.0573
1.06056
1.06403
1.06792
1.07171
1.07515
1.07932
1.08357
1.08738
1.09266
1.09467
1.09801
1.09785
1.09552
1.0892
1.0744
1.05771
1.02792
1.00103
0.966448
0.944541
0.935486
0.912706
0.886339
0.870684
0.85269
0.843208
0.829911
0.825673
0.820422
0.815809
0.812069
0.81298
0.81119
0.812345
0.813431
0.812631
0.815487
0.815805
0.816167
0.818868
0.818581
0.819843
0.820416
0.821222
0.821496
0.823609
0.824843
0.826419
0.827489
0.830117
0.831629
0.833158
0.83339
0.836319
0.838441
0.841006
0.84335
0.84677
0.849189
0.852194
0.854888
0.857171
0.856805
0.858578
0.858234
0.859998
0.861566
0.863482
0.864792
0.866847
0.868018
0.86965
0.8712
0.872273
0.872996
0.873395
0.873861
0.87452
0.872806
0.876246
0.876411
0.873589
0.873294
0.875679
0.871546
0.872143
0.871848
0.869374
0.867949
0.866214
0.871086
0.896214
0.967973
1.04615
1.08994
1.09931
1.10073
1.09994
1.09904
1.09817
1.09754
1.09701
1.09637
1.09568
1.09505
1.09464
1.09404
1.09351
1.09283
1.09228
1.09174
1.09133
1.09094
1.09069
1.0904
1.0902
1.0899
1.08964
1.08938
1.08916
1.0891
1.08874
1.08809
1.08735
1.08686
1.08678
1.08689
1.08698
1.0871
1.08718
1.08724
1.08727
1.08726
1.08723
1.08715
1.08706
1.08692
1.08679
1.08658
1.08638
1.08611
1.08584
1.08552
1.08521
1.0849
1.08463
1.08439
1.08422
1.08412
1.08409
1.08415
1.08428
1.08446
1.08461
1.08476
1.08495
1.08523
1.0854
1.08559
1.08578
1.08574
1.08594
1.08608
1.08634
1.08627
1.08613
1.08564
1.08548
1.08559
1.08366
1.08462
1.08558
1.07802
1.05834
1.03868
1.02947
1.02652
1.02115
1.01165
1.00723
1.00506
1.00339
1.00077
0.999999
0.996995
0.99593
0.994647
0.993307
0.99528
0.992444
0.988684
0.991157
0.984773
0.987243
0.9879
0.992595
0.996973
0.999771
1.00552
1.00555
0.99992
0.996799
0.992692
0.987911
0.987055
0.984892
0.991125
0.98853
0.992736
0.995289
0.993602
0.994888
0.996023
0.99719
0.999642
1.00121
1.00332
1.00484
1.00584
1.00577
1.00819
1.01123
1.01406
1.01582
1.01633
1.01769
1.01906
1.01962
1.01981
1.02052
1.02137
1.02119
1.02302
1.0237
1.02505
1.02614
1.02714
1.02831
1.02918
1.03021
1.0309
1.03189
1.03247
1.03341
1.034
1.03494
1.03535
1.03648
1.03689
1.03773
1.0383
1.03898
1.03945
1.04036
1.04066
1.0408
1.04113
1.04209
1.04255
1.04269
1.04317
1.0439
1.04397
1.04423
1.04459
1.04476
1.04475
1.04485
1.04499
1.04511
1.0452
1.04512
1.04512
1.045
1.04501
1.04486
1.04477
1.04447
1.04428
1.044
1.04377
1.04345
1.04308
1.04261
1.04221
1.04168
1.04123
1.04071
1.04019
1.03949
1.03872
1.03794
1.03706
1.03609
1.03496
1.03378
1.03253
1.03122
1.02978
1.0283
1.02677
1.02516
1.02239
1.01952
1.01824
1.01709
1.01466
1.01202
1.00921
1.00648
1.00371
1.00105
0.997899
0.995143
0.992288
0.989795
0.986834
0.984602
0.982106
0.980411
0.978387
0.977816
0.976318
0.977122
0.976914
0.977801
0.979395
0.979749
0.981384
0.983297
0.984678
0.986042
0.988001
0.988952
0.991139
0.992654
0.9947
0.996427
0.998133
0.999359
1.00128
1.00287
1.00464
1.00583
1.00781
1.0089
1.011
1.01237
1.01458
1.01583
1.01812
1.01937
1.02189
1.02343
1.02592
1.02755
1.02988
1.03165
1.03387
1.03608
1.0385
1.04084
1.04302
1.04551
1.04797
1.05096
1.05394
1.05688
1.06032
1.06306
1.06661
1.07028
1.07403
1.07804
1.08239
1.08612
1.09101
1.09435
1.09669
1.09621
1.09411
1.0873
1.07509
1.05641
1.02977
0.99962
0.971259
0.949607
0.939288
0.917194
0.894044
0.880662
0.860393
0.850156
0.83695
0.831669
0.82868
0.820467
0.821661
0.81695
0.81737
0.819142
0.81744
0.819511
0.818613
0.820701
0.820028
0.822447
0.821987
0.823277
0.822032
0.822987
0.821816
0.823164
0.822638
0.82336
0.823105
0.823744
0.823925
0.823636
0.822307
0.823641
0.824588
0.826085
0.827336
0.829516
0.831555
0.833762
0.835932
0.837904
0.837863
0.838962
0.83877
0.840027
0.841711
0.843524
0.844857
0.846425
0.848262
0.849636
0.851266
0.852095
0.853816
0.853648
0.854655
0.854898
0.853994
0.856599
0.858384
0.854613
0.855728
0.857121
0.854358
0.853956
0.855638
0.851054
0.851278
0.848142
0.853942
0.877104
0.948733
1.02671
1.07501
1.09333
1.09867
1.09911
1.09903
1.09841
1.09798
1.09733
1.09671
1.09593
1.09531
1.09479
1.09421
1.09369
1.09314
1.09267
1.09222
1.09185
1.0915
1.09123
1.09096
1.09075
1.09049
1.09025
1.09003
1.08982
1.08971
1.08943
1.08898
1.08844
1.088
1.08781
1.0878
1.08781
1.08786
1.08789
1.08792
1.08793
1.08791
1.08788
1.08781
1.08774
1.08763
1.08752
1.08736
1.08719
1.08698
1.08676
1.0865
1.08624
1.08598
1.08572
1.0855
1.08531
1.08517
1.08509
1.08509
1.08514
1.08525
1.08534
1.08542
1.08555
1.08574
1.08585
1.08602
1.08618
1.08602
1.08624
1.08639
1.08654
1.08665
1.08657
1.08646
1.08596
1.08619
1.08519
1.08581
1.0861
1.08086
1.06915
1.0503
1.03541
1.02973
1.02382
1.01327
1.00764
1.00506
1.00362
1.00075
1.00003
0.997102
0.995784
0.994799
0.993262
0.995837
0.992035
0.988692
0.991278
0.984697
0.986705
0.988222
0.992407
0.996985
0.999626
1.0054
1.00539
0.999768
0.996828
0.992194
0.988454
0.986875
0.984713
0.991349
0.988715
0.992109
0.996171
0.993325
0.994807
0.996094
0.997072
0.999579
1.00122
1.00336
1.00479
1.00574
1.00575
1.0075
1.00955
1.01202
1.01415
1.01504
1.01649
1.01778
1.01833
1.01818
1.01894
1.01988
1.02032
1.02176
1.02247
1.02379
1.02455
1.02578
1.0266
1.02772
1.02846
1.02936
1.03017
1.03091
1.03168
1.03239
1.03322
1.03371
1.03479
1.03524
1.03602
1.03669
1.03725
1.0377
1.03865
1.03901
1.03918
1.03942
1.04039
1.04077
1.04092
1.04132
1.04218
1.0422
1.04243
1.04277
1.04297
1.04292
1.04298
1.04313
1.04321
1.04327
1.04314
1.04316
1.04297
1.04294
1.04275
1.04264
1.04232
1.04206
1.04175
1.04146
1.0411
1.04067
1.04015
1.03969
1.03909
1.03857
1.03797
1.03736
1.03657
1.03571
1.03482
1.03382
1.03273
1.03148
1.03017
1.02879
1.02735
1.02578
1.02417
1.02249
1.02072
1.01783
1.01488
1.01344
1.01211
1.00959
1.00689
1.00403
1.00128
0.998503
0.995869
0.992782
0.990136
0.987399
0.985029
0.982251
0.980214
0.977888
0.976379
0.974553
0.974262
0.972871
0.973613
0.97394
0.974892
0.976369
0.977224
0.978993
0.981271
0.983112
0.984671
0.987267
0.988442
0.990869
0.992505
0.994781
0.996102
0.998488
0.999239
1.00174
1.00311
1.00535
1.00644
1.00868
1.00945
1.01178
1.01283
1.01537
1.01642
1.01881
1.02015
1.02257
1.0242
1.02651
1.02824
1.03057
1.03281
1.0351
1.03723
1.03934
1.04138
1.04396
1.04631
1.04934
1.05189
1.05491
1.05757
1.06101
1.06434
1.06796
1.07147
1.07516
1.07867
1.08296
1.08586
1.09091
1.0926
1.09551
1.0947
1.09332
1.08698
1.07454
1.0603
1.0365
1.01256
0.984394
0.9597
0.947941
0.925194
0.903872
0.884916
0.868719
0.854144
0.843376
0.833621
0.829038
0.82143
0.820153
0.815859
0.816266
0.814912
0.816936
0.815824
0.817786
0.817741
0.817217
0.819647
0.820178
0.819127
0.820769
0.819605
0.819865
0.82052
0.819573
0.820358
0.821166
0.820551
0.820407
0.819691
0.818118
0.818281
0.818952
0.8189
0.819706
0.820143
0.82165
0.822332
0.823943
0.824224
0.823859
0.824672
0.824082
0.824301
0.826176
0.827284
0.829092
0.829895
0.831933
0.833069
0.834955
0.834944
0.837301
0.836767
0.838351
0.837986
0.838086
0.839716
0.842593
0.838064
0.840271
0.840501
0.839513
0.837551
0.840204
0.835462
0.837106
0.832936
0.838921
0.859909
0.930416
1.00762
1.05797
1.08379
1.09385
1.09623
1.09737
1.09732
1.09728
1.09666
1.09615
1.09539
1.09483
1.09424
1.09368
1.09319
1.09276
1.09236
1.09203
1.09173
1.09147
1.09124
1.09103
1.09084
1.09063
1.09043
1.09026
1.09009
1.08999
1.08977
1.08945
1.08906
1.0887
1.08847
1.0884
1.08837
1.08838
1.08838
1.08838
1.08838
1.08835
1.08832
1.08826
1.0882
1.08811
1.08802
1.08789
1.08776
1.08759
1.08741
1.08722
1.087
1.08678
1.08655
1.08635
1.08616
1.08602
1.0859
1.08586
1.08585
1.08591
1.08593
1.08596
1.08603
1.08612
1.08621
1.08644
1.08653
1.08655
1.08659
1.08656
1.08675
1.08705
1.08704
1.08695
1.08679
1.08697
1.08619
1.08653
1.08651
1.0828
1.07592
1.06232
1.04412
1.03456
1.02717
1.01528
1.00841
1.00518
1.00346
1.00074
1.00004
0.996909
0.995887
0.99493
0.993239
0.995294
0.992725
0.988675
0.991294
0.984785
0.987046
0.987829
0.992801
0.997002
0.999797
1.00549
1.00544
0.999858
0.99682
0.993032
0.987839
0.987133
0.984874
0.990997
0.988634
0.992646
0.99559
0.993613
0.994808
0.996106
0.997135
0.999608
1.00122
1.00337
1.00485
1.00576
1.0057
1.0071
1.00827
1.01017
1.01243
1.01321
1.0145
1.01609
1.01659
1.01732
1.01771
1.01866
1.01913
1.02049
1.02114
1.02231
1.02311
1.02416
1.02505
1.02595
1.02684
1.02753
1.02847
1.02909
1.02988
1.03057
1.03142
1.03188
1.03298
1.03344
1.03421
1.03486
1.03539
1.03575
1.03672
1.03713
1.03735
1.03757
1.0385
1.03884
1.03896
1.03946
1.04017
1.04029
1.04042
1.0408
1.04089
1.04094
1.04093
1.0411
1.04112
1.04113
1.04098
1.04097
1.04078
1.04068
1.04047
1.04035
1.03996
1.03968
1.03931
1.03898
1.03857
1.0381
1.03752
1.037
1.03635
1.03575
1.03508
1.03438
1.03351
1.03256
1.03157
1.03047
1.02927
1.02792
1.02651
1.02502
1.02348
1.02182
1.02011
1.01833
1.01644
1.01347
1.0105
1.00897
1.00754
1.005
1.00234
0.999517
0.996829
0.994152
0.991626
0.98871
0.986258
0.983691
0.981536
0.978961
0.977155
0.975054
0.973764
0.972258
0.972094
0.970852
0.972227
0.972445
0.973682
0.975779
0.976561
0.97878
0.980787
0.982616
0.984301
0.986525
0.987855
0.99052
0.992255
0.994338
0.996322
0.99798
0.999416
1.00158
1.00308
1.00497
1.00601
1.00823
1.00931
1.01133
1.0127
1.01507
1.01647
1.01852
1.01979
1.02217
1.02366
1.02619
1.02813
1.03035
1.03236
1.03438
1.03669
1.0388
1.04127
1.04346
1.04595
1.04859
1.05142
1.05422
1.05686
1.0603
1.06341
1.06728
1.0704
1.07416
1.07786
1.0821
1.08528
1.08904
1.09262
1.09432
1.09326
1.09122
1.08502
1.07508
1.05922
1.03646
1.01379
0.986338
0.965963
0.949552
0.930432
0.910501
0.895007
0.875314
0.862956
0.8483
0.841809
0.835182
0.830423
0.826603
0.823396
0.822085
0.822554
0.821435
0.822736
0.82152
0.823158
0.822106
0.824049
0.823302
0.824921
0.823467
0.824504
0.823284
0.824466
0.823294
0.824479
0.823581
0.824342
0.823248
0.823686
0.820982
0.821749
0.820946
0.821683
0.821308
0.822262
0.821905
0.822832
0.822999
0.822358
0.821508
0.819958
0.819087
0.817525
0.818103
0.817634
0.818987
0.818447
0.820477
0.820177
0.822361
0.821783
0.82407
0.822539
0.824733
0.823873
0.824297
0.825172
0.828871
0.8236
0.826692
0.826335
0.825717
0.823859
0.827464
0.821369
0.823441
0.818901
0.825421
0.844058
0.912767
0.989323
1.03967
1.07133
1.08629
1.09117
1.09395
1.0948
1.09536
1.09496
1.09466
1.09402
1.09359
1.09301
1.09248
1.09201
1.09168
1.09137
1.09117
1.09096
1.09082
1.09068
1.09056
1.09043
1.0903
1.09015
1.09006
1.08995
1.08991
1.08975
1.08953
1.08925
1.08898
1.08877
1.08869
1.08864
1.08863
1.08862
1.08862
1.08861
1.08859
1.08856
1.08851
1.08846
1.08839
1.08832
1.08822
1.08811
1.08798
1.08784
1.08769
1.08751
1.08734
1.08715
1.08697
1.08679
1.08665
1.08652
1.08646
1.08642
1.08643
1.08642
1.08641
1.08647
1.08649
1.08658
1.08669
1.08673
1.08682
1.08686
1.0867
1.08695
1.08722
1.08725
1.08714
1.08738
1.08749
1.08679
1.08731
1.08689
1.08433
1.08048
1.07247
1.05436
1.04095
1.0313
1.01774
1.0093
1.00547
1.00341
1.00066
1.00005
0.996994
0.995669
0.994857
0.993195
0.995746
0.991893
0.988598
0.991257
0.984818
0.986777
0.988277
0.992135
0.997016
0.99961
1.00548
1.00544
0.99984
0.99683
0.99233
0.988489
0.986874
0.984623
0.991234
0.988743
0.992045
0.996301
0.993376
0.994869
0.996025
0.997181
0.999497
1.00135
1.00337
1.00476
1.0057
1.00582
1.00667
1.00721
1.0083
1.01056
1.0119
1.01291
1.01455
1.01491
1.01544
1.0162
1.01699
1.0178
1.01877
1.01959
1.02058
1.02139
1.02245
1.02313
1.02418
1.02484
1.02571
1.02642
1.02722
1.02788
1.02867
1.02943
1.02996
1.03099
1.03148
1.0322
1.03291
1.03339
1.03363
1.03459
1.03508
1.03535
1.03559
1.03646
1.03667
1.03683
1.03737
1.03801
1.03814
1.0383
1.03865
1.0387
1.03873
1.03869
1.03888
1.03884
1.03884
1.03866
1.03861
1.03839
1.03827
1.03803
1.03788
1.03745
1.03714
1.03672
1.03636
1.03589
1.03539
1.03476
1.03418
1.03347
1.03282
1.03207
1.0313
1.03035
1.02933
1.02825
1.02707
1.02578
1.02436
1.02287
1.02132
1.01971
1.01798
1.01622
1.01437
1.01242
1.00945
1.00653
1.005
1.00352
1.00105
0.998509
0.99582
0.993282
0.990766
0.988412
0.985773
0.983593
0.981353
0.979544
0.97748
0.975837
0.974354
0.973041
0.972491
0.971577
0.971826
0.971837
0.973436
0.973469
0.976397
0.976423
0.979392
0.981118
0.983575
0.984476
0.987857
0.988158
0.991772
0.992499
0.995661
0.996232
0.998939
0.999385
1.00192
1.0033
1.00575
1.00661
1.00938
1.00963
1.01235
1.01306
1.01561
1.01679
1.01925
1.02053
1.02313
1.0246
1.02682
1.02858
1.03087
1.03325
1.03532
1.03752
1.03987
1.04203
1.04468
1.04677
1.04966
1.05224
1.05552
1.05799
1.06141
1.06416
1.06823
1.07133
1.07475
1.07805
1.08183
1.08502
1.08833
1.09059
1.09289
1.09163
1.08974
1.08329
1.07443
1.06049
1.04252
1.02133
0.995755
0.975409
0.957144
0.938983
0.917017
0.899583
0.880111
0.867878
0.853131
0.844175
0.835172
0.831344
0.824899
0.822495
0.819118
0.820383
0.818781
0.819652
0.817842
0.819727
0.819118
0.821357
0.820848
0.822253
0.821004
0.821994
0.820992
0.821411
0.822321
0.82166
0.821118
0.82229
0.821065
0.821131
0.818836
0.819536
0.818772
0.819482
0.819738
0.819648
0.820539
0.820935
0.821449
0.820207
0.819499
0.818262
0.816578
0.814717
0.815299
0.81381
0.814355
0.812528
0.814687
0.812895
0.814271
0.81199
0.815132
0.812376
0.81422
0.812743
0.813993
0.813698
0.818076
0.811882
0.815242
0.813958
0.814631
0.811161
0.814892
0.809381
0.812438
0.807029
0.813463
0.829359
0.895781
0.972403
1.02071
1.05652
1.07607
1.08384
1.08863
1.09072
1.09213
1.09213
1.09218
1.09178
1.09156
1.09104
1.09058
1.09015
1.08992
1.0897
1.08962
1.08953
1.08953
1.08952
1.08952
1.08948
1.08945
1.08939
1.08938
1.08935
1.0894
1.08933
1.0892
1.08901
1.08884
1.08869
1.08863
1.08859
1.0886
1.0886
1.08861
1.08861
1.0886
1.08858
1.08855
1.08851
1.08846
1.08841
1.08834
1.08825
1.08816
1.08805
1.08794
1.0878
1.08768
1.08752
1.08737
1.08721
1.08708
1.08695
1.08688
1.08682
1.08682
1.08679
1.08676
1.08676
1.08677
1.08679
1.08683
1.08684
1.08694
1.08699
1.08705
1.08707
1.0873
1.08743
1.08761
1.08779
1.08799
1.08777
1.08794
1.08764
1.0858
1.08368
1.07907
1.06415
1.04837
1.03617
1.0207
1.01043
1.00577
1.00341
1.00064
1.00006
0.99687
0.995717
0.994637
0.993278
0.995407
0.992817
0.988685
0.991379
0.984868
0.987015
0.987789
0.992924
0.997085
0.999805
1.00548
1.00544
0.999956
0.996862
0.992835
0.987965
0.987041
0.984852
0.991294
0.988686
0.992417
0.995737
0.993381
0.994843
0.995985
0.997155
0.999503
1.00139
1.00334
1.00495
1.0056
1.00585
1.00637
1.00653
1.00703
1.00862
1.01008
1.01077
1.01269
1.01311
1.01399
1.01459
1.01557
1.0161
1.01725
1.01783
1.01892
1.01963
1.02057
1.02132
1.02218
1.02296
1.02364
1.02444
1.02515
1.02584
1.02655
1.02736
1.02783
1.02887
1.02936
1.0301
1.03074
1.03126
1.03134
1.03225
1.03284
1.03317
1.03353
1.03422
1.03448
1.0346
1.0352
1.03562
1.03586
1.03597
1.03635
1.03628
1.03641
1.03632
1.0365
1.03641
1.03637
1.0362
1.03609
1.03589
1.03572
1.03546
1.03529
1.03481
1.03448
1.03402
1.03363
1.03312
1.03258
1.0319
1.03128
1.03052
1.02981
1.029
1.02817
1.02716
1.02608
1.02493
1.02369
1.02235
1.02088
1.01935
1.01777
1.01614
1.0144
1.01263
1.01078
1.00883
1.00594
1.00317
1.0017
1.00026
0.997944
0.995584
0.99318
0.990911
0.988738
0.986722
0.984525
0.982571
0.98064
0.978927
0.977074
0.975501
0.974162
0.972876
0.972345
0.971539
0.971928
0.971518
0.973242
0.973457
0.97668
0.976094
0.979259
0.980858
0.983499
0.984097
0.987495
0.987724
0.991063
0.992115
0.995262
0.996397
0.998568
0.999909
1.00182
1.0031
1.00538
1.00601
1.00879
1.0096
1.0118
1.01312
1.01546
1.01648
1.01901
1.01972
1.02273
1.02404
1.02697
1.02845
1.03058
1.03301
1.03491
1.03712
1.03899
1.04177
1.04399
1.04659
1.04917
1.05184
1.05466
1.05742
1.0608
1.06366
1.06727
1.07059
1.0741
1.07728
1.081
1.08377
1.08726
1.08987
1.09147
1.0901
1.08801
1.0813
1.07306
1.06055
1.04286
1.01992
0.997797
0.977214
0.960385
0.942885
0.921976
0.9076
0.886403
0.875601
0.85822
0.850462
0.840466
0.837215
0.832814
0.827063
0.823976
0.824545
0.823839
0.824845
0.824358
0.823484
0.825862
0.824763
0.826239
0.824459
0.82518
0.824419
0.825457
0.824161
0.825057
0.824069
0.824861
0.824303
0.824695
0.824191
0.822036
0.821342
0.822091
0.821679
0.822314
0.821796
0.822373
0.822829
0.823146
0.82268
0.821125
0.819967
0.818658
0.816785
0.816206
0.815403
0.815611
0.814411
0.814328
0.813549
0.813775
0.811916
0.813058
0.809399
0.81087
0.808012
0.808078
0.806744
0.810604
0.803602
0.806859
0.804995
0.804938
0.801872
0.806076
0.798933
0.801757
0.796176
0.802618
0.81572
0.880106
0.956565
1.00267
1.03999
1.06349
1.07422
1.08133
1.08495
1.08745
1.08806
1.08861
1.08858
1.08866
1.08829
1.08795
1.08759
1.08747
1.08735
1.08739
1.08743
1.08757
1.08771
1.08786
1.08796
1.08806
1.08809
1.08819
1.08827
1.08843
1.08846
1.08844
1.08835
1.08827
1.0882
1.08819
1.0882
1.08824
1.08827
1.08832
1.08834
1.08836
1.08836
1.08835
1.08834
1.08831
1.08829
1.08824
1.08819
1.08812
1.08804
1.08797
1.08787
1.08778
1.08765
1.08754
1.08741
1.0873
1.08717
1.0871
1.08704
1.08703
1.08699
1.08695
1.08691
1.0869
1.08693
1.08697
1.08706
1.08697
1.08702
1.08723
1.08736
1.0873
1.08747
1.08781
1.08802
1.08819
1.08821
1.08842
1.08831
1.08725
1.08575
1.0831
1.07206
1.05616
1.04164
1.02419
1.01187
1.00609
1.00356
1.00061
1.00003
0.996866
0.995523
0.994859
0.993198
0.995993
0.991718
0.988502
0.991429
0.98483
0.986964
0.988163
0.992616
0.997017
0.999602
1.00549
1.00537
0.999799
0.996818
0.992319
0.98832
0.987128
0.984672
0.991365
0.988686
0.991951
0.996542
0.993337
0.994849
0.996056
0.997124
0.99954
1.00141
1.0033
1.00499
1.00545
1.00596
1.00625
1.00597
1.00573
1.00686
1.00872
1.00926
1.01081
1.01134
1.0121
1.01288
1.01363
1.01438
1.01527
1.01604
1.017
1.01769
1.01862
1.01923
1.02015
1.02077
1.02156
1.0222
1.02299
1.02365
1.02436
1.02516
1.02567
1.02662
1.02713
1.02783
1.02849
1.02903
1.02901
1.0298
1.03051
1.03084
1.03121
1.03187
1.03207
1.03223
1.03286
1.03311
1.03339
1.03363
1.03392
1.03377
1.0339
1.0338
1.03398
1.03386
1.03382
1.03361
1.03346
1.03326
1.0331
1.0328
1.0326
1.03208
1.03175
1.03124
1.03084
1.03028
1.02973
1.02901
1.02836
1.02755
1.0268
1.02595
1.02506
1.02401
1.0229
1.02172
1.02046
1.0191
1.01763
1.01609
1.01454
1.01292
1.01123
1.00951
1.00772
1.00584
1.00317
1.00065
0.999386
0.998103
0.996348
0.994268
0.992125
0.990158
0.988227
0.986416
0.984408
0.982639
0.980819
0.979196
0.977345
0.975928
0.974635
0.973419
0.972752
0.972106
0.972127
0.972487
0.97399
0.974122
0.976905
0.976978
0.979477
0.981407
0.983898
0.984889
0.988367
0.988867
0.991989
0.992671
0.996007
0.996281
0.999353
0.999951
1.00251
1.00375
1.00577
1.0068
1.00917
1.01021
1.01256
1.01356
1.01621
1.01708
1.01979
1.02066
1.02334
1.02457
1.0271
1.02893
1.03122
1.03346
1.03583
1.03786
1.04007
1.04226
1.04473
1.04701
1.04998
1.05217
1.05557
1.05784
1.06134
1.06398
1.06759
1.07038
1.07412
1.07718
1.08059
1.08327
1.08615
1.08799
1.0899
1.08841
1.08727
1.08054
1.07344
1.06116
1.04484
1.0271
1.0053
0.984295
0.968443
0.948774
0.929089
0.912157
0.893349
0.879649
0.86566
0.853212
0.844219
0.838445
0.831913
0.824704
0.826314
0.822637
0.823131
0.821068
0.822416
0.821113
0.822731
0.822177
0.823675
0.822747
0.823563
0.822105
0.823658
0.822325
0.823013
0.822137
0.82295
0.822253
0.822703
0.821655
0.820913
0.819631