/*--------------------------------*- C++ -*----------------------------------*\
| =========                 |                                                 |
| \\      /  F ield         | OpenFOAM: The Open Source CFD Toolbox           |
|  \\    /   O peration     | Version:  v2006                                 |
|   \\  /    A nd           | Website:  www.openfoam.com                      |
|    \\/     M anipulation  |                                                 |
\*---------------------------------------------------------------------------*/
FoamFile
{
    version     2.0;
    format      ascii;
    class       volVectorField;
    location    "200";
    object      U;
}
// * * * * * * * * * * * * * * * * * * * * * * * * * * * * * * * * * * * * * //

dimensions      [0 1 -1 0 0 0 0];


internalField   nonuniform List<vector> 
93840
(
(0.797479 0.0834978 3.03151e-18)
(0.808429 0.0847284 -1.72923e-18)
(0.841214 0.0929545 1.02432e-16)
(0.863386 0.0855835 2.55456e-16)
(0.887112 0.0925972 4.6315e-16)
(0.878975 0.082395 -3.81741e-16)
(0.884731 0.070106 -2.13286e-16)
(0.893312 0.0633416 2.07646e-17)
(0.87595 0.0688183 -6.98486e-17)
(0.87679 0.0439214 2.03314e-16)
(0.867294 0.0612633 -3.41401e-16)
(0.866877 0.0252536 6.03441e-17)
(0.866835 0.054023 1.69877e-18)
(0.857294 0.0209295 1.45262e-16)
(0.851406 0.0409726 9.36828e-17)
(0.840122 0.0165879 -2.95355e-17)
(0.833828 0.0326757 9.74204e-17)
(0.820571 0.0143474 -5.07992e-18)
(0.815075 0.0310951 1.0106e-16)
(0.806205 0.0212941 -2.36448e-18)
(0.801964 0.0311646 9.14996e-17)
(0.769881 0.0225901 8.41774e-18)
(0.732766 0.0284955 7.56119e-17)
(0.699262 0.0349627 3.06531e-17)
(0.684587 0.0325265 5.87618e-17)
(0.673498 0.0223899 4.11663e-17)
(0.68382 0.00526715 4.96922e-17)
(0.681162 0.00183765 4.11233e-17)
(0.680872 0.0136572 4.1938e-17)
(0.660456 0.00405809 3.69477e-17)
(0.610408 -0.00935953 3.99789e-17)
(0.569708 0.0132406 3.7473e-17)
(0.565652 -0.0247694 3.96463e-17)
(0.595061 -0.0290069 3.75996e-17)
(0.53022 -0.026194 3.9475e-17)
(0.561781 -0.0329333 3.76477e-17)
(0.515736 -0.023684 3.9212e-17)
(0.538629 -0.0316178 3.78053e-17)
(0.504684 -0.021936 3.89828e-17)
(0.51855 -0.0278558 3.79983e-17)
(0.494474 -0.0200462 3.87423e-17)
(0.504591 -0.0232539 3.80607e-17)
(0.485934 -0.0184563 3.87615e-17)
(0.492879 -0.0196521 3.80273e-17)
(0.477547 -0.0169795 3.87131e-17)
(0.482131 -0.0169409 3.80443e-17)
(0.46646 -0.0145341 3.8678e-17)
(0.471876 -0.0137823 3.79436e-17)
(0.458044 -0.0116998 3.87015e-17)
(0.461453 -0.0112658 3.78914e-17)
(0.449932 -0.00868125 3.85382e-17)
(0.452083 -0.00818345 3.79837e-17)
(0.441955 -0.00689643 3.82937e-17)
(0.440345 -0.00499863 3.79371e-17)
(0.432576 -0.00148933 3.81241e-17)
(0.436512 -9.71017e-05 3.78212e-17)
(0.430392 5.96061e-05 3.80089e-17)
(0.430892 0.000354107 3.76279e-17)
(0.420194 0.00160882 3.78244e-17)
(0.419316 0.00413971 3.74314e-17)
(0.415285 0.00588765 3.74266e-17)
(0.413331 0.00690958 3.71218e-17)
(0.407055 0.0093591 3.72092e-17)
(0.407534 0.0115512 3.67873e-17)
(0.403915 0.0128446 3.69071e-17)
(0.402135 0.0146226 3.63519e-17)
(0.399871 0.0166603 3.63731e-17)
(0.40055 0.0182252 3.59771e-17)
(0.39791 0.0194556 3.59904e-17)
(0.39737 0.0213447 3.56816e-17)
(0.395973 0.0227748 3.55306e-17)
(0.395137 0.0243126 3.54852e-17)
(0.394554 0.026125 3.52371e-17)
(0.394697 0.0275814 3.52003e-17)
(0.394481 0.0290285 3.4067e-17)
(0.394318 0.0306773 3.36221e-17)
(0.394789 0.0321464 3.42468e-17)
(0.394795 0.0337754 3.37619e-17)
(0.396381 0.0354346 3.3901e-17)
(0.397208 0.0366484 3.34592e-17)
(0.398203 0.0380873 3.32267e-17)
(0.398817 0.0395795 3.3776e-17)
(0.400169 0.0413285 3.40259e-17)
(0.402093 0.0431042 3.46758e-17)
(0.40453 0.0444917 3.45461e-17)
(0.406297 0.0459775 3.59088e-17)
(0.409015 0.0474593 3.65353e-17)
(0.411051 0.0487716 3.68468e-17)
(0.413311 0.0503005 3.82544e-17)
(0.415551 0.0520796 3.89946e-17)
(0.419357 0.0541462 4.23583e-17)
(0.423602 0.0557287 4.24093e-17)
(0.427752 0.0572949 4.37978e-17)
(0.432352 0.0588794 4.47676e-17)
(0.437222 0.0604765 4.8158e-17)
(0.442934 0.0620934 4.927e-17)
(0.448666 0.0634218 5.27241e-17)
(0.454411 0.0648552 5.07843e-17)
(0.460415 0.0662406 5.3433e-17)
(0.46701 0.0677337 5.60793e-17)
(0.473833 0.068828 5.34728e-17)
(0.480309 0.0698812 5.55846e-17)
(0.486557 0.071789 5.80216e-17)
(0.500736 0.0753457 5.31208e-17)
(0.517164 0.0746247 5.45385e-17)
(0.521444 0.071074 4.74922e-17)
(0.522767 0.071516 5.347e-17)
(0.532949 0.0743749 4.64733e-17)
(0.545277 0.0747879 5.55617e-17)
(0.557665 0.0748466 4.82785e-17)
(0.569835 0.0741719 5.46756e-17)
(0.581967 0.0733211 4.71316e-17)
(0.593627 0.0721526 5.42142e-17)
(0.608158 0.0714744 4.9169e-17)
(0.621672 0.0688886 5.72389e-17)
(0.635263 0.0661083 5.49135e-17)
(0.647666 0.0626212 5.70028e-17)
(0.662648 0.059812 5.68365e-17)
(0.675286 0.054395 5.93938e-17)
(0.68838 0.0498263 5.97768e-17)
(0.69879 0.0432366 6.25724e-17)
(0.710545 0.0384571 6.53505e-17)
(0.716447 0.0298279 6.76223e-17)
(0.726305 0.024228 6.94653e-17)
(0.726695 0.013459 7.23058e-17)
(0.72848 0.00892565 7.32428e-17)
(0.730763 2.97214e-05 7.62749e-17)
(0.725075 -0.00616992 7.70953e-17)
(0.727732 -0.00990296 7.99348e-17)
(0.724737 -0.0192125 8.08527e-17)
(0.718706 -0.0219754 8.36335e-17)
(0.716156 -0.0297588 8.46515e-17)
(0.711779 -0.0311004 8.72739e-17)
(0.708652 -0.0374233 8.76318e-17)
(0.706165 -0.0404622 9.06056e-17)
(0.701912 -0.0464373 8.99487e-17)
(0.697381 -0.0482374 9.31548e-17)
(0.693578 -0.0527753 9.32878e-17)
(0.69035 -0.0547319 9.52159e-17)
(0.687514 -0.0581798 9.48757e-17)
(0.686866 -0.0615726 9.61848e-17)
(0.682908 -0.0650087 9.46591e-17)
(0.679304 -0.0684778 9.54451e-17)
(0.676407 -0.0709429 9.60039e-17)
(0.674666 -0.0740326 9.50784e-17)
(0.671782 -0.0775141 9.44432e-17)
(0.670375 -0.080902 9.46458e-17)
(0.667978 -0.0850955 9.38894e-17)
(0.664551 -0.0882086 9.4528e-17)
(0.660483 -0.0921569 9.58536e-17)
(0.656844 -0.0944611 9.59886e-17)
(0.653038 -0.0987954 9.86543e-17)
(0.649198 -0.102266 9.94285e-17)
(0.64405 -0.106991 1.02342e-16)
(0.638845 -0.109908 1.03565e-16)
(0.633343 -0.114706 1.05681e-16)
(0.627184 -0.117561 1.06941e-16)
(0.620772 -0.12275 1.08951e-16)
(0.613273 -0.125299 1.09075e-16)
(0.605438 -0.12981 1.11983e-16)
(0.597583 -0.132084 1.12615e-16)
(0.590749 -0.137823 1.1496e-16)
(0.581917 -0.141536 1.14851e-16)
(0.572398 -0.147146 1.17169e-16)
(0.561183 -0.151173 1.17541e-16)
(0.549182 -0.156609 1.19272e-16)
(0.535602 -0.160698 1.19179e-16)
(0.521008 -0.164701 1.21715e-16)
(0.506182 -0.16832 1.20785e-16)
(0.489174 -0.173796 1.23531e-16)
(0.468416 -0.177646 1.23207e-16)
(0.44441 -0.180799 1.25466e-16)
(0.419142 -0.179471 1.25111e-16)
(0.393143 -0.179496 1.26856e-16)
(0.359189 -0.179327 1.28641e-16)
(0.32108 -0.175648 1.29203e-16)
(0.276782 -0.167751 1.31915e-16)
(0.22161 -0.148957 1.34136e-16)
(0.167976 -0.120548 1.38303e-16)
(0.0858982 -0.0603769 1.47189e-16)
(0.0553809 -0.0134426 1.62317e-16)
(-0.0543851 0.172221 8.9867e-17)
(-0.0487923 0.267264 8.48544e-17)
(-0.042687 0.534482 8.3891e-17)
(0.115157 0.671146 8.65941e-17)
(0.249641 0.860457 8.50543e-17)
(0.504759 0.903459 8.68985e-17)
(0.69407 0.905391 8.58103e-17)
(0.821778 0.80029 8.57256e-17)
(0.842581 0.738781 8.46673e-17)
(0.950368 0.724737 8.37703e-17)
(1.04811 0.689858 8.34124e-17)
(1.10991 0.639889 8.18378e-17)
(1.1654 0.603642 8.08105e-17)
(1.19542 0.555936 8.01134e-17)
(1.22097 0.520144 8.03791e-17)
(1.23025 0.479748 8.13008e-17)
(1.23538 0.452325 8.12522e-17)
(1.24878 0.421478 8.2217e-17)
(1.24461 0.398938 8.15703e-17)
(1.24245 0.376512 8.29917e-17)
(1.23931 0.358593 8.26557e-17)
(1.23393 0.340119 8.13354e-17)
(1.22726 0.323723 8.21469e-17)
(1.21728 0.307316 8.4108e-17)
(1.20979 0.293069 8.1828e-17)
(1.20231 0.280813 8.42517e-17)
(1.19515 0.268415 8.41028e-17)
(1.18564 0.256202 8.48146e-17)
(1.17953 0.245708 8.39952e-17)
(1.17218 0.234391 8.5603e-17)
(1.16935 0.224293 8.58911e-17)
(1.16227 0.215399 8.87164e-17)
(1.15942 0.204681 8.70025e-17)
(1.14888 0.194841 8.69483e-17)
(1.14297 0.186419 8.89621e-17)
(1.13444 0.178307 9.19969e-17)
(1.131 0.1705 9.15746e-17)
(1.12314 0.163246 9.29923e-17)
(1.12057 0.154807 9.3849e-17)
(1.1156 0.145769 9.66697e-17)
(1.11565 0.137496 9.63496e-17)
(1.10486 0.130715 9.84687e-17)
(1.10007 0.124695 9.91637e-17)
(1.09107 0.119272 1.01473e-16)
(1.08585 0.114323 1.01434e-16)
(1.07535 0.10907 1.02063e-16)
(1.07095 0.10421 1.01262e-16)
(1.06017 0.0992017 1.01739e-16)
(1.05495 0.0948874 9.98663e-17)
(1.04961 0.0895255 9.96326e-17)
(1.0552 0.0833786 9.86284e-17)
(1.04781 0.076563 1.00356e-16)
(1.05351 0.0696448 9.96184e-17)
(1.04584 0.0643529 1.00939e-16)
(1.04409 0.0590717 1.00311e-16)
(1.03607 0.0546389 1.02827e-16)
(1.03528 0.0511164 1.03837e-16)
(1.02708 0.0472548 1.0665e-16)
(1.02677 0.0418973 1.08217e-16)
(1.01852 0.037355 1.10461e-16)
(1.01939 0.0328898 1.10675e-16)
(1.01363 0.0280557 1.11966e-16)
(1.01506 0.0226017 1.12665e-16)
(1.01048 0.0192702 1.1365e-16)
(1.01363 0.0148098 1.13806e-16)
(1.00438 0.0104326 1.13887e-16)
(1.01448 0.00290086 1.13695e-16)
(0.991047 0.000888329 1.12963e-16)
(1.0017 -0.00255748 1.13156e-16)
(1.00244 -0.0120751 1.11786e-16)
(1.01148 -0.015214 1.1274e-16)
(0.987441 -0.0201093 1.10415e-16)
(1.0182 -0.0268521 1.1234e-16)
(0.993514 -0.0340098 1.09659e-16)
(1.01421 -0.0375208 1.12193e-16)
(0.997709 -0.0415274 1.08942e-16)
(1.02843 -0.0510848 1.11532e-16)
(0.998943 -0.0556597 1.0792e-16)
(1.01195 -0.0634311 1.10283e-16)
(0.919146 -0.063008 1.08145e-16)
(0.678557 -0.036472 1.07059e-16)
(0.161375 -0.00356749 1.0237e-16)
(-0.120551 0.0104081 1.01111e-16)
(-0.164443 0.013641 1.03691e-16)
(-0.189531 0.0172667 1.05409e-16)
(-0.170791 0.0163938 1.08424e-16)
(-0.173546 0.0182591 1.08226e-16)
(-0.158587 0.0177653 1.1013e-16)
(-0.157978 0.017096 1.10409e-16)
(-0.137358 0.0144376 1.14084e-16)
(-0.12951 0.0147228 1.12923e-16)
(-0.112927 0.0139691 1.12498e-16)
(-0.107853 0.0132577 1.10017e-16)
(-0.0920055 0.0108216 1.09685e-16)
(-0.0858002 0.0103662 1.05114e-16)
(-0.0753158 0.00969203 1.04373e-16)
(-0.0738 0.0098919 9.9079e-17)
(-0.0678188 0.00916632 1.01227e-16)
(-0.0668575 0.00920469 9.53744e-17)
(-0.0611617 0.00860016 9.43837e-17)
(-0.0601831 0.00866857 9.43055e-17)
(-0.0553007 0.00811884 8.71601e-17)
(-0.0548855 0.00824414 8.28311e-17)
(-0.0524691 0.00801201 8.02008e-17)
(-0.0531692 0.00820951 7.38085e-17)
(-0.0533197 0.00825501 7.0575e-17)
(-0.0522553 0.00815759 7.23113e-17)
(-0.0507523 0.00809193 7.42234e-17)
(-0.0494377 0.00801354 7.15529e-17)
(-0.0502126 0.00819597 6.86245e-17)
(-0.0541666 0.00889546 5.76162e-17)
(-0.0570947 0.00955506 6.32957e-17)
(-0.0618122 0.010567 6.01572e-17)
(-0.064068 0.0110289 5.39478e-17)
(-0.0648843 0.0112213 5.73149e-17)
(-0.0645549 0.0112566 5.63864e-17)
(-0.0649092 0.0114296 5.83981e-17)
(-0.0647268 0.0114851 5.90984e-17)
(-0.0654498 0.0116846 5.96616e-17)
(-0.0656764 0.0117845 5.73092e-17)
(-0.0669238 0.0121045 5.84105e-17)
(-0.0675468 0.0123569 5.78076e-17)
(-0.0693167 0.0128461 5.96866e-17)
(-0.0701833 0.0131042 5.91049e-17)
(-0.0722648 0.0135117 5.89864e-17)
(-0.0730641 0.0136684 6.11101e-17)
(-0.0751945 0.0140839 5.88542e-17)
(-0.0757079 0.0142383 5.92798e-17)
(-0.077767 0.0147164 5.98514e-17)
(-0.078059 0.0148554 6.01568e-17)
(-0.0801405 0.0153163 6.01747e-17)
(-0.0802486 0.0153646 6.06125e-17)
(-0.0826134 0.01581 6.11514e-17)
(-0.0827775 0.0158739 6.01266e-17)
(-0.0855145 0.0164881 6.11095e-17)
(-0.0856631 0.016648 5.82183e-17)
(-0.0885825 0.0173536 5.82883e-17)
(-0.088454 0.0173766 5.71686e-17)
(-0.0914396 0.017939 5.72895e-17)
(-0.0909266 0.0177792 5.53784e-17)
(-0.0935837 0.0183048 5.68531e-17)
(-0.0922682 0.0181338 5.55277e-17)
(-0.0947055 0.0188233 5.56266e-17)
(-0.0926424 0.0186494 5.57367e-17)
(-0.0948677 0.019275 5.52174e-17)
(-0.0919427 0.0190966 5.59461e-17)
(-0.093058 0.0191706 5.61416e-17)
(-0.0871962 0.017736 5.64271e-17)
(-0.0870763 0.0162505 5.68402e-17)
(-0.0769584 0.0129275 5.73448e-17)
(-0.0720945 0.00774275 5.74831e-17)
(-0.0513399 -0.000851853 5.85168e-17)
(-0.0388919 -0.00583392 5.76044e-17)
(-0.00725053 -0.0239036 5.89417e-17)
(-0.0112816 -0.095132 6.57504e-17)
(0.176029 0.0285399 4.74529e-17)
(0.214153 0.014134 5.3117e-17)
(0.377641 0.0166933 4.49769e-17)
(0.497318 0.0424085 4.51136e-17)
(0.57952 0.0265168 3.6539e-17)
(0.675156 0.0194502 4.76466e-17)
(0.692952 0.0289679 3.69498e-17)
(0.684456 0.0338906 6.11277e-17)
(0.688758 0.035597 2.73602e-17)
(0.722216 0.0292115 7.89849e-17)
(0.762338 0.0235149 7.16797e-18)
(0.799811 0.0316537 9.11474e-17)
(0.80634 0.0214006 2.15645e-18)
(0.815307 0.0306362 9.42433e-17)
(0.820513 0.0149646 5.1954e-19)
(0.833841 0.0327133 1.23094e-16)
(0.840162 0.0164885 -2.63062e-17)
(0.851494 0.040992 1.09038e-16)
(0.856308 0.0211033 -1.24617e-16)
(0.867421 0.0542824 2.53698e-16)
(0.866961 0.0252186 -2.81846e-17)
(0.866708 0.0615845 2.84834e-16)
(0.878752 0.0432845 -5.76877e-16)
(0.876123 0.0686663 3.80763e-17)
(0.89326 0.063173 -1.30336e-16)
(0.884868 0.0707142 -3.8218e-16)
(0.88311 0.0822866 4.75668e-17)
(0.88723 0.0927607 -4.85431e-17)
(0.864341 0.085503 -7.95553e-18)
(0.84116 0.0932722 -5.06274e-18)
(0.808425 0.0847025 -3.01534e-17)
(0.797493 0.0832369 -2.27518e-17)
(0.797454 0.0832722 8.68641e-18)
(0.808384 0.0847111 -4.5593e-17)
(0.841167 0.0932404 8.33903e-18)
(0.864602 0.0853915 3.68663e-17)
(0.887276 0.0927425 1.1811e-16)
(0.884636 0.0820947 2.57275e-16)
(0.885109 0.0706535 -4.10952e-16)
(0.894176 0.062952 -4.16615e-16)
(0.876585 0.068599 1.48969e-16)
(0.878697 0.0432768 -4.45146e-16)
(0.866096 0.0616157 1.45533e-16)
(0.867026 0.025274 -2.02811e-17)
(0.866966 0.0543275 1.52572e-17)
(0.856185 0.0210542 -1.51913e-16)
(0.851498 0.0412285 1.08521e-16)
(0.840117 0.0167199 -4.71704e-17)
(0.833995 0.0328698 1.23024e-16)
(0.820994 0.0149258 -1.42975e-19)
(0.815379 0.0309278 1.08088e-16)
(0.80734 0.0215911 -1.2785e-17)
(0.805745 0.0320207 9.30543e-17)
(0.779041 0.024173 1.06102e-17)
(0.74721 0.0303565 7.084e-17)
(0.717201 0.0355123 3.4091e-17)
(0.703554 0.0344963 5.60524e-17)
(0.687068 0.0280328 4.28019e-17)
(0.672598 0.0150016 4.93987e-17)
(0.656035 0.0125616 4.41212e-17)
(0.65368 0.0184028 4.6131e-17)
(0.653293 -0.00116359 4.53759e-17)
(0.637669 -0.00790305 4.3647e-17)
(0.635338 -0.0154833 4.40848e-17)
(0.632901 -0.000423098 4.29053e-17)
(0.612394 -0.0259583 4.36791e-17)
(0.613923 -0.0174068 4.29498e-17)
(0.593356 -0.025325 4.33578e-17)
(0.594763 -0.0221177 4.30177e-17)
(0.578509 -0.02328 4.31237e-17)
(0.576996 -0.0224727 4.31036e-17)
(0.566348 -0.0212891 4.29032e-17)
(0.561707 -0.0206151 4.30736e-17)
(0.556131 -0.0188021 4.27706e-17)
(0.549539 -0.0182049 4.30128e-17)
(0.546036 -0.016629 4.26636e-17)
(0.539243 -0.0160593 4.28869e-17)
(0.535728 -0.014505 4.25837e-17)
(0.528449 -0.0135742 4.27253e-17)
(0.525624 -0.0118426 4.24807e-17)
(0.518815 -0.0104015 4.26746e-17)
(0.516177 -0.00960776 4.22649e-17)
(0.509471 -0.00735852 4.25488e-17)
(0.507261 -0.00657592 4.21327e-17)
(0.500253 -0.00524977 4.2324e-17)
(0.497609 -0.00344896 4.19938e-17)
(0.491464 -0.000288925 4.20602e-17)
(0.491843 0.00115806 4.18246e-17)
(0.487607 0.0016246 4.18176e-17)
(0.485648 0.00235223 4.1562e-17)
(0.47802 0.00386495 4.15377e-17)
(0.475741 0.0058728 4.12215e-17)
(0.472263 0.00795988 4.11632e-17)
(0.469457 0.00941448 4.08937e-17)
(0.464644 0.0117548 4.08069e-17)
(0.46398 0.0137284 4.03645e-17)
(0.46079 0.0154802 4.03541e-17)
(0.458822 0.017384 3.993e-17)
(0.456972 0.0195248 3.98286e-17)
(0.457042 0.0211682 3.93304e-17)
(0.454894 0.0227055 3.92701e-17)
(0.454167 0.0246815 3.88291e-17)
(0.453027 0.0262742 3.85062e-17)
(0.452203 0.0279617 3.79863e-17)
(0.451869 0.0299942 3.7977e-17)
(0.451928 0.0317139 3.74153e-17)
(0.451997 0.0332613 3.75959e-17)
(0.451938 0.0351809 3.74518e-17)
(0.452653 0.0368247 3.71144e-17)
(0.452827 0.0386008 3.70412e-17)
(0.454622 0.0404063 3.77225e-17)
(0.455564 0.0418926 3.74884e-17)
(0.456921 0.043522 3.8181e-17)
(0.457836 0.0452429 3.85097e-17)
(0.45959 0.0471608 3.92987e-17)
(0.461772 0.0491226 3.92771e-17)
(0.46452 0.0507635 4.06319e-17)
(0.466677 0.0524574 4.13442e-17)
(0.469744 0.0541724 4.26387e-17)
(0.472219 0.0557188 4.40771e-17)
(0.475035 0.0574786 4.5375e-17)
(0.477881 0.0594643 4.69089e-17)
(0.482254 0.061693 4.85656e-17)
(0.487008 0.0634973 4.83839e-17)
(0.491785 0.0652797 5.21909e-17)
(0.497061 0.0670648 5.304e-17)
(0.502613 0.0688666 5.62245e-17)
(0.509032 0.0706903 5.66372e-17)
(0.51544 0.0722134 5.83331e-17)
(0.522002 0.0738474 5.97151e-17)
(0.528821 0.0753858 6.03648e-17)
(0.536264 0.0770375 5.90733e-17)
(0.543966 0.078262 6.17571e-17)
(0.551568 0.0794869 6.14226e-17)
(0.559235 0.0813514 5.76774e-17)
(0.574197 0.0849166 5.85019e-17)
(0.590452 0.0843738 5.78283e-17)
(0.595636 0.0809097 5.73176e-17)
(0.598929 0.0813356 5.88905e-17)
(0.610426 0.084037 5.59567e-17)
(0.623643 0.0843731 5.80138e-17)
(0.637097 0.0843318 5.46649e-17)
(0.650281 0.0834978 5.96426e-17)
(0.663491 0.0824436 5.56859e-17)
(0.676308 0.0809188 6.13042e-17)
(0.691762 0.080031 5.85349e-17)
(0.705968 0.0769358 6.38069e-17)
(0.720369 0.0738729 6.17098e-17)
(0.733568 0.0697821 6.56555e-17)
(0.749061 0.0663762 6.54165e-17)
(0.761903 0.060416 6.86129e-17)
(0.77529 0.0549669 6.9579e-17)
(0.785632 0.0478363 7.37679e-17)
(0.797144 0.0420027 7.38016e-17)
(0.802535 0.0324057 7.80827e-17)
(0.811815 0.0259079 7.9015e-17)
(0.811415 0.0142403 8.26145e-17)
(0.813173 0.00808032 8.386e-17)
(0.814176 -0.000689049 8.69917e-17)
(0.808583 -0.00849628 8.79802e-17)
(0.810278 -0.0134987 9.10378e-17)
(0.806304 -0.0217355 9.2103e-17)
(0.799914 -0.0274937 9.50216e-17)
(0.796837 -0.0327697 9.59517e-17)
(0.791692 -0.0384573 9.85811e-17)
(0.788173 -0.0417887 9.9338e-17)
(0.784577 -0.0470627 1.01968e-16)
(0.780019 -0.0508616 1.02855e-16)
(0.774762 -0.0553134 1.05217e-16)
(0.770499 -0.0579925 1.0531e-16)
(0.766758 -0.0622626 1.0739e-16)
(0.763207 -0.0648321 1.06722e-16)
(0.761826 -0.0687735 1.07837e-16)
(0.756931 -0.072914 1.07051e-16)
(0.752885 -0.0761344 1.07319e-16)
(0.74925 -0.0794604 1.05714e-16)
(0.746679 -0.0828178 1.05552e-16)
(0.743028 -0.085925 1.03931e-16)
(0.740717 -0.0895182 1.04308e-16)
(0.737402 -0.0932797 1.03294e-16)
(0.732699 -0.0980379 1.05379e-16)
(0.727817 -0.101296 1.05368e-16)
(0.722828 -0.105973 1.08512e-16)
(0.717875 -0.109419 1.09359e-16)
(0.712681 -0.113734 1.12585e-16)
(0.706615 -0.117156 1.1363e-16)
(0.700017 -0.121569 1.15886e-16)
(0.69328 -0.124812 1.17774e-16)
(0.685352 -0.129626 1.19337e-16)
(0.677869 -0.132867 1.20209e-16)
(0.668413 -0.137868 1.21603e-16)
(0.659327 -0.139734 1.2194e-16)
(0.649088 -0.143328 1.22885e-16)
(0.640027 -0.146266 1.23143e-16)
(0.628055 -0.151521 1.23623e-16)
(0.615734 -0.154821 1.23629e-16)
(0.600966 -0.159176 1.24082e-16)
(0.585918 -0.162581 1.23332e-16)
(0.569048 -0.165797 1.23023e-16)
(0.550572 -0.167072 1.21432e-16)
(0.530954 -0.168958 1.22907e-16)
(0.509445 -0.171554 1.1955e-16)
(0.484258 -0.173036 1.22314e-16)
(0.456188 -0.17167 1.19575e-16)
(0.424973 -0.168965 1.21441e-16)
(0.3944 -0.166352 1.19711e-16)
(0.357019 -0.162538 1.21029e-16)
(0.317629 -0.154372 1.20564e-16)
(0.272905 -0.140951 1.20865e-16)
(0.222032 -0.118685 1.20863e-16)
(0.172172 -0.0779988 1.22295e-16)
(0.110795 -0.0304842 1.22974e-16)
(0.0720809 0.0447857 1.36651e-16)
(0.0197524 0.160216 6.60868e-17)
(0.0262659 0.30285 7.88454e-17)
(0.0380103 0.452114 9.21506e-17)
(0.146642 0.550648 1.08901e-16)
(0.296789 0.711042 1.13661e-16)
(0.501254 0.767335 1.25585e-16)
(0.685437 0.803484 1.23582e-16)
(0.822382 0.756699 1.24869e-16)
(0.867581 0.718517 1.23355e-16)
(0.966509 0.714851 1.21607e-16)
(1.07165 0.695063 1.19086e-16)
(1.14356 0.656949 1.18073e-16)
(1.20804 0.618564 1.16272e-16)
(1.25107 0.577904 1.16057e-16)
(1.28997 0.545286 1.13307e-16)
(1.30823 0.518499 1.13603e-16)
(1.32443 0.484302 1.10456e-16)
(1.34079 0.465339 1.10799e-16)
(1.34801 0.432924 1.09746e-16)
(1.34878 0.415748 1.10641e-16)
(1.35087 0.397513 1.09924e-16)
(1.34977 0.379207 1.07195e-16)
(1.34725 0.361231 1.05156e-16)
(1.33976 0.342791 1.07378e-16)
(1.33372 0.328222 1.05113e-16)
(1.32713 0.314056 1.06612e-16)
(1.32117 0.300366 1.07138e-16)
(1.3124 0.286835 1.07446e-16)
(1.3069 0.275493 1.06269e-16)
(1.29851 0.262326 1.07996e-16)
(1.29596 0.252228 1.08504e-16)
(1.28866 0.239933 1.1131e-16)
(1.28626 0.231254 1.10563e-16)
(1.27632 0.219279 1.08957e-16)
(1.27102 0.210129 1.10109e-16)
(1.26201 0.200973 1.13196e-16)
(1.25924 0.192624 1.13552e-16)
(1.25123 0.183783 1.14212e-16)
(1.24862 0.175602 1.14674e-16)
(1.2432 0.164898 1.17423e-16)
(1.24394 0.156496 1.17561e-16)
(1.2339 0.148663 1.19371e-16)
(1.22981 0.142315 1.20154e-16)
(1.22104 0.135482 1.2261e-16)
(1.21659 0.13023 1.21686e-16)
(1.20609 0.123871 1.23043e-16)
(1.20208 0.118764 1.2135e-16)
(1.19127 0.112608 1.21885e-16)
(1.18661 0.108031 1.19605e-16)
(1.17982 0.102735 1.19803e-16)
(1.18512 0.0945892 1.18331e-16)
(1.17753 0.0871942 1.19884e-16)
(1.18319 0.0809055 1.19108e-16)
(1.17643 0.0732997 1.19554e-16)
(1.17503 0.0687596 1.1967e-16)
(1.16751 0.0638134 1.21561e-16)
(1.16687 0.058331 1.22679e-16)
(1.15905 0.0532245 1.25424e-16)
(1.15836 0.0480914 1.26907e-16)
(1.15084 0.0436786 1.28986e-16)
(1.1512 0.0375805 1.30067e-16)
(1.1461 0.0330369 1.3149e-16)
(1.14762 0.0267611 1.31932e-16)
(1.14359 0.0213091 1.32944e-16)
(1.14783 0.0147095 1.33221e-16)
(1.1417 0.011539 1.33847e-16)
(1.15534 0.00278553 1.34199e-16)
(1.13782 0.000847437 1.34026e-16)
(1.14734 -0.00282383 1.34328e-16)
(1.14945 -0.0138661 1.32965e-16)
(1.16046 -0.0166802 1.34037e-16)
(1.13996 -0.0246547 1.31688e-16)
(1.16788 -0.0304186 1.33654e-16)
(1.14843 -0.0366522 1.3061e-16)
(1.16715 -0.0449284 1.33659e-16)
(1.15202 -0.0529162 1.29366e-16)
(1.18423 -0.0594795 1.33869e-16)
(1.15149 -0.0669981 1.27225e-16)
(1.18266 -0.0731679 1.34902e-16)
(1.06137 -0.0611249 1.24642e-16)
(0.855059 -0.0300348 1.28773e-16)
(0.401323 0.0222531 1.14521e-16)
(0.0394951 0.0238289 1.06234e-16)
(-0.063702 0.0133626 1.07723e-16)
(-0.110418 0.0120331 1.10674e-16)
(-0.104231 0.0099375 1.12116e-16)
(-0.112885 0.0117867 1.14093e-16)
(-0.103435 0.011018 1.13768e-16)
(-0.105162 0.0102541 1.15443e-16)
(-0.0875317 0.00744548 1.19069e-16)
(-0.0812977 0.00772491 1.18931e-16)
(-0.0676369 0.00697476 1.18552e-16)
(-0.064227 0.00648451 1.18186e-16)
(-0.0511311 0.00451239 1.1783e-16)
(-0.0472341 0.00468217 1.11188e-16)
(-0.0404395 0.00456701 1.11013e-16)
(-0.0416629 0.00529415 1.08421e-16)
(-0.0384342 0.00490097 1.08331e-16)
(-0.0395523 0.00509968 1.0255e-16)
(-0.0357035 0.00458537 9.73215e-17)
(-0.0358054 0.00471953 9.83106e-17)
(-0.0316489 0.00421105 9.47498e-17)
(-0.0315468 0.0045338 8.94357e-17)
(-0.029401 0.00440368 8.71565e-17)
(-0.0304667 0.00493626 8.45663e-17)
(-0.0313248 0.0049056 7.79373e-17)
(-0.0315604 0.00475951 7.71459e-17)
(-0.0308418 0.0045712 7.76493e-17)
(-0.0287152 0.00459535 7.71243e-17)
(-0.0295175 0.00567834 7.3238e-17)
(-0.0346568 0.00700718 6.64046e-17)
(-0.0394225 0.00795106 6.79799e-17)
(-0.0445694 0.00865952 6.40897e-17)
(-0.0466513 0.00839578 5.98689e-17)
(-0.047189 0.00812897 6.12569e-17)
(-0.0463712 0.00798789 6.02441e-17)
(-0.0460047 0.00804088 6.15467e-17)
(-0.0451472 0.0080416 6.26074e-17)
(-0.0451618 0.00819138 6.26878e-17)
(-0.0448029 0.00830292 6.31781e-17)
(-0.0454824 0.00860036 6.23334e-17)
(-0.0457329 0.00888469 6.2787e-17)
(-0.0471593 0.00935025 6.30686e-17)
(-0.0479413 0.00967634 6.30274e-17)
(-0.0499204 0.0100868 6.34733e-17)
(-0.0508983 0.0103415 6.28502e-17)
(-0.0531021 0.0107534 6.17746e-17)
(-0.0540431 0.0110235 6.24015e-17)
(-0.0563223 0.0114835 6.27926e-17)
(-0.0571784 0.0117651 6.23471e-17)
(-0.0595257 0.012244 6.28657e-17)
(-0.0602466 0.0125173 6.25196e-17)
(-0.0627134 0.013021 6.27108e-17)
(-0.0634575 0.0133643 6.19862e-17)
(-0.066174 0.0140154 6.18195e-17)
(-0.0670243 0.0144672 6.10602e-17)
(-0.0700593 0.0151571 6.11701e-17)
(-0.0710249 0.0155023 5.97908e-17)
(-0.0743314 0.0159795 5.9844e-17)
(-0.0752115 0.0161039 5.89999e-17)
(-0.0781957 0.0163132 5.91034e-17)
(-0.078323 0.0162117 5.83546e-17)
(-0.0808156 0.0162357 5.84575e-17)
(-0.0801147 0.0159009 5.8684e-17)
(-0.0819842 0.0154784 5.85218e-17)
(-0.0806765 0.0146653 5.86543e-17)
(-0.081436 0.0134993 5.8763e-17)
(-0.0782359 0.011109 5.94721e-17)
(-0.0775304 0.00864571 5.94412e-17)
(-0.0740022 0.00458762 5.97653e-17)
(-0.0706889 -0.00108166 5.97363e-17)
(-0.0663719 -0.00656055 6.00037e-17)
(-0.0616072 -0.0139864 5.97572e-17)
(-0.0523161 -0.0175418 5.9152e-17)
(-0.070944 -0.0526682 5.76367e-17)
(-0.0542111 -0.0289258 5.7748e-17)
(0.0143832 -0.0355431 6.08219e-17)
(0.0716672 -0.027025 4.30978e-17)
(0.207313 0.0244027 5.75549e-17)
(0.317426 0.018652 3.69363e-17)
(0.499804 0.018286 5.35112e-17)
(0.622885 0.0323865 3.17502e-17)
(0.660717 0.0379072 6.21265e-17)
(0.670673 0.036276 2.5782e-17)
(0.702876 0.0283761 8.17933e-17)
(0.747829 0.02292 8.19171e-18)
(0.793516 0.0310365 9.18601e-17)
(0.804178 0.0213903 1.88906e-18)
(0.814614 0.0307519 9.94812e-17)
(0.820719 0.0138512 1.47749e-18)
(0.833821 0.0328957 1.03785e-16)
(0.840086 0.016229 -2.11932e-17)
(0.851481 0.0409288 8.05627e-17)
(0.857428 0.0209312 1.82134e-16)
(0.866503 0.0541592 -2.06086e-16)
(0.867039 0.025302 5.89229e-17)
(0.86748 0.0612453 -2.38135e-16)
(0.877149 0.0438797 5.41915e-18)
(0.876488 0.0687204 -7.6671e-17)
(0.892829 0.0634588 2.09159e-16)
(0.884697 0.0701535 -3.74018e-16)
(0.879389 0.0823797 -3.70292e-16)
(0.886927 0.0925968 4.22048e-16)
(0.863521 0.0855746 1.50902e-16)
(0.841201 0.0930406 9.02079e-17)
(0.808414 0.0846846 -7.15288e-18)
(0.797445 0.0835415 1.7738e-17)
(0.797512 0.0833939 -2.96661e-17)
(0.808411 0.0847849 -1.43517e-17)
(0.841202 0.0930039 6.7995e-17)
(0.863895 0.0853577 2.04939e-16)
(0.887064 0.0926388 3.43013e-16)
(0.880214 0.0822061 -3.22241e-16)
(0.885375 0.0699483 -3.03931e-16)
(0.89201 0.0635918 8.06183e-17)
(0.876126 0.0687766 -1.82181e-16)
(0.877794 0.0437422 4.33567e-17)
(0.866652 0.0613698 -3.80512e-16)
(0.866813 0.02528 3.60009e-17)
(0.866865 0.0539529 6.35823e-17)
(0.856948 0.0209146 1.36011e-16)
(0.8514 0.0411715 8.22865e-17)
(0.840174 0.0168051 -1.41268e-17)
(0.833865 0.0328814 1.02918e-16)
(0.820951 0.0144383 -4.0283e-18)
(0.815718 0.0313595 1.04889e-16)
(0.80707 0.0214984 -8.77307e-18)
(0.808232 0.0314767 8.8794e-17)
(0.787822 0.0231022 1.66488e-17)
(0.76202 0.0292328 6.37367e-17)
(0.734413 0.0346664 3.91261e-17)
(0.722109 0.0311768 5.31109e-17)
(0.709359 0.0253589 4.38264e-17)
(0.691526 0.014492 5.00219e-17)
(0.676442 0.0125493 4.48376e-17)
(0.675727 0.0179244 4.70806e-17)
(0.6765 0.00787164 4.5574e-17)
(0.658271 -0.00433275 4.64085e-17)
(0.657356 -0.00162965 4.57638e-17)
(0.659257 -0.0106081 4.54987e-17)
(0.646324 -0.0150585 4.53839e-17)
(0.638004 -0.0169339 4.53654e-17)
(0.633502 -0.0203078 4.52035e-17)
(0.621342 -0.0187738 4.52492e-17)
(0.618943 -0.021654 4.50721e-17)
(0.607584 -0.0186191 4.51157e-17)
(0.60522 -0.0205335 4.49191e-17)
(0.595575 -0.0175268 4.49778e-17)
(0.593479 -0.018463 4.48003e-17)
(0.585376 -0.0158436 4.4872e-17)
(0.582851 -0.0161696 4.46509e-17)
(0.575992 -0.0140683 4.47338e-17)
(0.572433 -0.0137937 4.45296e-17)
(0.56594 -0.0119586 4.45552e-17)
(0.562409 -0.0111205 4.43687e-17)
(0.556748 -0.00906597 4.43876e-17)
(0.553107 -0.00864569 4.41504e-17)
(0.5477 -0.00627094 4.42009e-17)
(0.544423 -0.00559601 4.3941e-17)
(0.538832 -0.00394121 4.3936e-17)
(0.535398 -0.00212732 4.37074e-17)
(0.530222 0.000627222 4.36514e-17)
(0.529203 0.00192004 4.34641e-17)
(0.52637 0.00254832 4.33469e-17)
(0.523439 0.00365407 4.31443e-17)
(0.517273 0.00545778 4.30123e-17)
(0.514256 0.00723491 4.27567e-17)
(0.511616 0.00920069 4.26124e-17)
(0.508453 0.0111817 4.24126e-17)
(0.504329 0.0135709 4.21607e-17)
(0.503188 0.0152648 4.18907e-17)
(0.500678 0.0171428 4.1707e-17)
(0.49853 0.0193701 4.13857e-17)
(0.497068 0.0214485 4.12502e-17)
(0.496896 0.0232811 4.08742e-17)
(0.495319 0.0249534 4.06296e-17)
(0.494463 0.0270996 4.04004e-17)
(0.49373 0.0287719 4.01933e-17)
(0.492999 0.030546 3.99286e-17)
(0.493004 0.0327097 3.9801e-17)
(0.493096 0.0345696 3.96636e-17)
(0.493515 0.0362777 3.99679e-17)
(0.493664 0.0383243 3.98231e-17)
(0.494632 0.0401805 4.0049e-17)
(0.49506 0.0420895 4.02978e-17)
(0.497119 0.0440167 4.04993e-17)
(0.498343 0.0456696 4.09827e-17)
(0.500064 0.0474937 4.16881e-17)
(0.501334 0.0493912 4.23829e-17)
(0.503466 0.0514587 4.34328e-17)
(0.505973 0.0535684 4.38975e-17)
(0.509082 0.0553475 4.5382e-17)
(0.511671 0.0572369 4.64198e-17)
(0.515142 0.0591022 4.86577e-17)
(0.518124 0.0608527 4.97914e-17)
(0.521471 0.0627976 5.12097e-17)
(0.524891 0.0649526 5.29801e-17)
(0.529747 0.0673633 5.43032e-17)
(0.535017 0.0693464 5.74192e-17)
(0.540384 0.0713195 5.87436e-17)
(0.546241 0.0732761 5.99953e-17)
(0.552424 0.0752268 6.11624e-17)
(0.559441 0.077192 6.28287e-17)
(0.566504 0.0788669 6.30344e-17)
(0.573759 0.0806537 6.54076e-17)
(0.581286 0.0823287 6.39787e-17)
(0.589446 0.0841279 6.39955e-17)
(0.5979 0.0854991 6.41634e-17)
(0.606352 0.0868875 6.37754e-17)
(0.614932 0.0887648 6.4911e-17)
(0.630204 0.0922226 6.43774e-17)
(0.64654 0.0916688 6.33228e-17)
(0.652899 0.0884427 6.33806e-17)
(0.657627 0.0888305 6.19749e-17)
(0.669795 0.0915354 6.21393e-17)
(0.683555 0.0917187 6.0665e-17)
(0.697635 0.091616 6.05875e-17)
(0.711342 0.090597 6.35709e-17)
(0.725104 0.0893749 6.233e-17)
(0.738398 0.0875954 6.55752e-17)
(0.754077 0.0863934 6.53758e-17)
(0.768328 0.0829843 6.72928e-17)
(0.782893 0.0793924 6.83364e-17)
(0.796015 0.0748152 7.13341e-17)
(0.81123 0.071101 7.17574e-17)
(0.823581 0.0643871 7.65077e-17)
(0.836511 0.058683 7.66725e-17)
(0.84614 0.0505624 8.12368e-17)
(0.856834 0.0446691 8.24093e-17)
(0.861434 0.0342693 8.63953e-17)
(0.869956 0.0272553 8.78004e-17)
(0.868664 0.0159144 9.13456e-17)
(0.870228 0.00952333 9.27016e-17)
(0.870134 -0.000480157 9.58143e-17)
(0.864473 -0.00838171 9.69031e-17)
(0.865257 -0.0125461 1.00026e-16)
(0.860632 -0.0229903 1.01386e-16)
(0.854023 -0.0268836 1.04654e-16)
(0.850025 -0.0351302 1.05376e-16)
(0.844621 -0.0378734 1.08078e-16)
(0.840437 -0.0448312 1.09179e-16)
(0.835997 -0.0484148 1.11567e-16)
(0.830782 -0.0549346 1.1245e-16)
(0.824729 -0.0574582 1.14468e-16)
(0.819809 -0.0624705 1.14283e-16)
(0.815213 -0.0654284 1.15465e-16)
(0.810911 -0.0690341 1.14942e-16)
(0.808339 -0.0728203 1.1511e-16)
(0.802537 -0.0766725 1.13785e-16)
(0.797524 -0.0803992 1.14463e-16)