/*--------------------------------*- C++ -*----------------------------------*\
| =========                 |                                                 |
| \\      /  F ield         | OpenFOAM: The Open Source CFD Toolbox           |
|  \\    /   O peration     | Version:  v2006                                 |
|   \\  /    A nd           | Website:  www.openfoam.com                      |
|    \\/     M anipulation  |                                                 |
\*---------------------------------------------------------------------------*/
FoamFile
{
    version     2.0;
    format      ascii;
    class       volScalarField;
    location    "75";
    object      alphat;
}
// * * * * * * * * * * * * * * * * * * * * * * * * * * * * * * * * * * * * * //

dimensions      [1 -1 -1 0 0 0 0];


internalField   nonuniform List<scalar> 
93840
(
2.75962e-08
2.7412e-08
2.78464e-08
2.76571e-08
2.83682e-08
2.74867e-08
2.95095e-08
2.87322e-08
2.9668e-08
2.9434e-08
3.02911e-08
3.00127e-08
3.09005e-08
2.99543e-08
3.02667e-08
3.04269e-08
3.17341e-08
3.52963e-08
5.58612e-08
1.40854e-07
3.30098e-07
8.69552e-07
3.59425e-06
8.18157e-06
1.09129e-05
1.13266e-05
1.13968e-05
1.32933e-05
1.35316e-05
1.40137e-05
1.28492e-05
1.25389e-05
1.22903e-05
1.2047e-05
1.19981e-05
1.19157e-05
1.1728e-05
1.17948e-05
1.15071e-05
1.16234e-05
1.13436e-05
1.14515e-05
1.11575e-05
1.12797e-05
1.10165e-05
1.1093e-05
1.0865e-05
1.0918e-05
1.07272e-05
1.07319e-05
1.05867e-05
1.05938e-05
1.04354e-05
1.0432e-05
1.03532e-05
1.03671e-05
1.02733e-05
1.02334e-05
1.01432e-05
1.01258e-05
1.00838e-05
1.0045e-05
9.98304e-06
1.00104e-05
9.94657e-06
9.95759e-06
9.91974e-06
9.9422e-06
9.90559e-06
9.91536e-06
9.92329e-06
9.94143e-06
9.98109e-06
1.00208e-05
1.00689e-05
1.01156e-05
1.01673e-05
1.02452e-05
1.03085e-05
1.03968e-05
1.04625e-05
1.0542e-05
1.06284e-05
1.07322e-05
1.08345e-05
1.09197e-05
1.10278e-05
1.11127e-05
1.1195e-05
1.12849e-05
1.13983e-05
1.15205e-05
1.1625e-05
1.17431e-05
1.1863e-05
1.19914e-05
1.21147e-05
1.22358e-05
1.23707e-05
1.25156e-05
1.26517e-05
1.27891e-05
1.29324e-05
1.32081e-05
1.34656e-05
1.35177e-05
1.35691e-05
1.37496e-05
1.39414e-05
1.41289e-05
1.43117e-05
1.44898e-05
1.4671e-05
1.48899e-05
1.50936e-05
1.53043e-05
1.55033e-05
1.57329e-05
1.59261e-05
1.61254e-05
1.63038e-05
1.64787e-05
1.65877e-05
1.67124e-05
1.67978e-05
1.68902e-05
1.69504e-05
1.69686e-05
1.69988e-05
1.71081e-05
1.70753e-05
1.71416e-05
1.71241e-05
1.71873e-05
1.71875e-05
1.72034e-05
1.71972e-05
1.7242e-05
1.72515e-05
1.7299e-05
1.73033e-05
1.7352e-05
1.73349e-05
1.73703e-05
1.73782e-05
1.74099e-05
1.74313e-05
1.74454e-05
1.74432e-05
1.74518e-05
1.74599e-05
1.74547e-05
1.74358e-05
1.74148e-05
1.73721e-05
1.73175e-05
1.72516e-05
1.71762e-05
1.7076e-05
1.69896e-05
1.6881e-05
1.67718e-05
1.65938e-05
1.6453e-05
1.62395e-05
1.59672e-05
1.55335e-05
1.49732e-05
1.42296e-05
1.35947e-05
1.3197e-05
1.1531e-05
6.0622e-06
8.55919e-09
3.213e-06
6.39549e-06
1.92317e-06
3.23982e-13
1.73253e-07
1.05313e-06
2.20749e-07
5.65132e-08
5.77931e-07
7.14042e-07
6.20976e-07
1.0135e-06
1.57396e-06
1.74768e-07
7.56393e-11
9.59123e-06
1.25162e-05
2.59322e-06
4.57724e-06
1.19638e-05
1.64299e-05
1.81847e-05
1.87304e-05
1.8855e-05
1.88735e-05
1.88183e-05
1.88301e-05
1.87552e-05
1.86248e-05
1.85002e-05
1.83884e-05
1.83013e-05
1.82062e-05
1.80977e-05
1.79947e-05
1.78841e-05
1.77462e-05
1.76182e-05
1.75075e-05
1.73997e-05
1.72616e-05
1.71621e-05
1.70233e-05
1.69129e-05
1.67714e-05
1.66776e-05
1.64961e-05
1.64342e-05
1.63175e-05
1.62196e-05
1.6059e-05
1.59677e-05
1.58385e-05
1.57849e-05
1.56795e-05
1.56143e-05
1.54808e-05
1.54246e-05
1.53095e-05
1.52736e-05
1.51367e-05
1.51303e-05
1.49869e-05
1.49746e-05
1.482e-05
1.48363e-05
1.46668e-05
1.47092e-05
1.45159e-05
1.45806e-05
1.44075e-05
1.44749e-05
1.42356e-05
1.43727e-05
1.41281e-05
1.42241e-05
1.36112e-05
1.26507e-05
1.2274e-05
1.24725e-05
1.26807e-05
1.28107e-05
1.29238e-05
1.29956e-05
1.30092e-05
1.29656e-05
1.28929e-05
1.28029e-05
1.27175e-05
1.26168e-05
1.25112e-05
1.23968e-05
1.22988e-05
1.21559e-05
1.18914e-05
1.16248e-05
1.15673e-05
1.15134e-05
1.12877e-05
1.09836e-05
1.08431e-05
1.0765e-05
1.05985e-05
1.03483e-05
1.01366e-05
9.93777e-06
9.74026e-06
9.50179e-06
9.27274e-06
8.98347e-06
8.68365e-06
8.2359e-06
7.73887e-06
7.20193e-06
6.637e-06
6.08594e-06
5.45118e-06
4.43162e-06
3.22525e-06
1.82395e-06
5.63357e-07
5.8182e-08
4.63629e-09
8.01483e-09
1.06219e-08
5.8328e-09
3.7192e-09
2.7822e-09
2.76079e-09
3.62198e-09
5.52063e-09
7.84867e-09
1.10664e-08
1.49642e-08
1.93966e-08
1.99237e-08
1.57922e-08
1.57456e-08
8.69408e-09
7.03137e-09
5.8688e-09
4.82746e-09
4.03691e-09
2.50704e-09
2.39636e-09
2.32765e-09
2.23658e-09
2.21222e-09
2.31683e-09
2.38264e-09
3.08828e-09
3.63414e-09
3.5423e-09
3.42401e-09
4.01462e-09
8.64605e-09
1.20669e-08
2.76513e-08
7.14764e-08
3.03486e-07
1.81472e-06
1.83138e-06
7.48668e-06
1.01764e-05
1.48681e-05
1.54147e-05
1.46496e-05
1.5172e-05
1.21154e-05
1.16194e-05
9.7402e-06
4.97437e-06
1.52606e-06
8.11713e-08
3.53647e-08
3.96358e-08
3.11131e-08
2.88136e-08
2.96043e-08
3.03686e-08
3.01794e-08
3.07067e-08
2.98026e-08
3.02752e-08
2.96299e-08
2.96023e-08
2.86811e-08
2.94124e-08
2.74876e-08
2.8218e-08
2.74878e-08
2.78023e-08
2.73064e-08
2.74742e-08
2.74454e-08
2.73226e-08
2.7728e-08
2.75895e-08
2.81455e-08
2.75088e-08
2.94005e-08
2.86792e-08
2.95003e-08
2.94445e-08
3.03803e-08
2.98244e-08
3.04565e-08
3.01291e-08
3.08133e-08
3.18829e-08
3.9631e-08
4.81327e-08
3.37182e-08
1.5335e-08
2.59197e-08
1.65198e-07
2.05065e-06
6.31376e-06
9.82251e-06
1.16027e-05
1.19062e-05
1.18351e-05
1.18194e-05
1.19442e-05
1.16409e-05
1.16349e-05
1.15177e-05
1.15842e-05
1.16916e-05
1.14973e-05
1.18199e-05
1.15013e-05
1.18953e-05
1.15082e-05
1.19574e-05
1.15277e-05
1.19553e-05
1.15905e-05
1.19872e-05
1.16068e-05
1.19982e-05
1.17003e-05
1.19938e-05
1.1788e-05
1.20175e-05
1.18882e-05
1.20935e-05
1.19441e-05
1.21871e-05
1.20458e-05
1.23154e-05
1.22636e-05
1.24975e-05
1.25186e-05
1.27497e-05
1.27202e-05
1.29424e-05
1.29085e-05
1.30516e-05
1.29923e-05
1.30957e-05
1.30159e-05
1.3088e-05
1.30262e-05
1.31809e-05
1.3313e-05
1.34765e-05
1.36202e-05
1.38548e-05
1.39739e-05
1.4219e-05
1.44367e-05
1.46779e-05
1.49153e-05
1.52074e-05
1.54308e-05
1.5735e-05
1.60147e-05
1.62898e-05
1.65073e-05
1.67787e-05
1.69605e-05
1.71379e-05
1.72829e-05
1.74548e-05
1.76258e-05
1.77148e-05
1.78322e-05
1.79444e-05
1.80219e-05
1.80859e-05
1.8101e-05
1.81835e-05
1.82389e-05
1.82224e-05
1.82468e-05
1.82217e-05
1.82139e-05
1.82225e-05
1.82332e-05
1.82571e-05
1.81628e-05
1.80981e-05
1.80404e-05
1.79756e-05
1.78762e-05
1.78021e-05
1.76965e-05
1.75721e-05
1.74875e-05
1.73532e-05
1.72178e-05
1.70741e-05
1.6916e-05
1.6762e-05
1.6589e-05
1.64312e-05
1.6281e-05
1.61642e-05
1.61048e-05
1.59253e-05
1.59517e-05
1.57542e-05
1.57191e-05
1.56338e-05
1.55786e-05
1.5476e-05
1.54177e-05
1.53017e-05
1.52186e-05
1.51241e-05
1.5041e-05
1.49319e-05
1.48335e-05
1.46864e-05
1.45854e-05
1.44633e-05
1.43489e-05
1.42029e-05
1.40714e-05
1.3901e-05
1.37341e-05
1.35408e-05
1.33749e-05
1.31678e-05
1.29516e-05
1.27024e-05
1.24331e-05
1.21085e-05
1.17404e-05
1.1306e-05
1.085e-05
1.03532e-05
9.75996e-06
8.95719e-06
7.97569e-06
7.02967e-06
6.49862e-06
6.22989e-06
5.46388e-06
3.85442e-06
2.17985e-06
1.39353e-06
1.68282e-06
2.05729e-06
1.58496e-06
2.87166e-07
5.12818e-10
2.64975e-10
9.42977e-09
4.14373e-08
5.582e-08
1.10611e-07
1.03282e-08
8.15481e-09
1.17321e-07
9.21178e-09
5.82143e-09
2.0738e-09
1.49369e-08
1.03826e-07
8.22422e-09
1.56335e-09
6.61213e-07
1.86358e-07
4.36749e-08
2.22993e-13
1.31547e-06
3.99546e-06
4.67301e-06
4.03558e-06
4.46248e-06
6.27551e-06
7.92534e-06
8.8274e-06
9.52764e-06
1.0312e-05
1.11152e-05
1.17282e-05
1.22395e-05
1.27137e-05
1.31275e-05
1.349e-05
1.37823e-05
1.39815e-05
1.41469e-05
1.42746e-05
1.43932e-05
1.44888e-05
1.46113e-05
1.46864e-05
1.47489e-05
1.47849e-05
1.48475e-05
1.47896e-05
1.48659e-05
1.49504e-05
1.50271e-05
1.50889e-05
1.51563e-05
1.52401e-05
1.53128e-05
1.54169e-05
1.547e-05
1.54599e-05
1.54313e-05
1.5389e-05
1.54333e-05
1.54105e-05
1.5492e-05
1.55684e-05
1.55645e-05
1.56853e-05
1.56824e-05
1.57327e-05
1.58415e-05
1.57942e-05
1.58731e-05
1.61061e-05
1.60444e-05
1.59571e-05
1.62697e-05
1.65465e-05
1.75054e-05
1.72368e-05
1.92841e-05
2.02113e-05
2.01277e-05
1.98537e-05
1.96778e-05
1.94983e-05
1.93818e-05
1.93121e-05
1.92995e-05
1.93956e-05
1.95117e-05
1.96353e-05
1.96999e-05
1.97338e-05
1.97799e-05
1.97806e-05
1.96584e-05
1.95238e-05
1.94307e-05
1.9315e-05
1.91256e-05
1.89495e-05
1.88646e-05
1.88273e-05
1.87362e-05
1.85551e-05
1.84101e-05
1.83531e-05
1.83116e-05
1.82646e-05
1.80895e-05
1.79605e-05
1.76203e-05
1.72289e-05
1.61771e-05
1.46552e-05
1.29919e-05
1.12665e-05
9.65023e-06
8.35345e-06
7.13936e-06
6.29354e-06
5.55355e-06
4.61788e-06
4.02716e-06
3.64346e-06
3.3322e-06
2.30358e-06
1.40952e-06
8.4867e-07
5.58667e-07
5.02364e-07
6.10593e-07
7.42085e-07
8.36917e-07
9.98628e-07
1.15879e-06
1.30998e-06
1.11109e-06
7.82339e-07
6.68389e-07
4.9237e-07
4.13937e-07
4.64015e-07
4.02676e-07
3.73914e-07
1.73041e-07
2.29151e-07
2.59951e-07
2.45155e-07
2.15331e-07
1.53211e-07
1.23492e-07
2.63323e-07
3.38291e-07
3.97341e-07
4.89965e-07
6.63265e-07
7.64167e-07
7.7386e-07
1.12836e-06
2.09878e-06
4.41041e-06
8.24867e-06
1.23508e-05
1.32864e-05
1.52504e-05
1.90001e-05
2.21865e-05
1.95052e-05
2.44775e-05
1.72192e-05
1.05245e-05
9.77349e-06
5.39539e-06
1.6984e-06
7.57253e-08
2.03735e-09
8.68035e-09
2.58172e-08
3.46623e-08
3.29417e-08
3.10394e-08
3.05159e-08
3.06688e-08
3.0206e-08
3.05017e-08
2.95275e-08
2.96793e-08
2.86877e-08
2.94798e-08
2.74991e-08
2.83345e-08
2.7585e-08
2.78458e-08
2.74391e-08
2.76133e-08
2.76322e-08
2.74144e-08
2.78737e-08
2.75947e-08
2.83191e-08
2.74902e-08
2.953e-08
2.86446e-08
2.94836e-08
2.96497e-08
3.04106e-08
2.99402e-08
3.08468e-08
3.02583e-08
3.02657e-08
2.93437e-08
2.59187e-08
2.16251e-08
2.82419e-08
2.83773e-08
1.43979e-08
2.09921e-07
1.53803e-06
4.55228e-06
8.36058e-06
1.07941e-05
1.26836e-05
1.3401e-05
1.34583e-05
1.37619e-05
1.35562e-05
1.37134e-05
1.3175e-05
1.37776e-05
1.33994e-05
1.3749e-05
1.36059e-05
1.38172e-05
1.37885e-05
1.38958e-05
1.39381e-05
1.39759e-05
1.40691e-05
1.41016e-05
1.41975e-05
1.42174e-05
1.43881e-05
1.43847e-05
1.45625e-05
1.4579e-05
1.47915e-05
1.48108e-05
1.50345e-05
1.50167e-05
1.53259e-05
1.53541e-05
1.57317e-05
1.58863e-05
1.62367e-05
1.64612e-05
1.67432e-05
1.68288e-05
1.71065e-05
1.7117e-05
1.72408e-05
1.7201e-05
1.72772e-05
1.71755e-05
1.72526e-05
1.72401e-05
1.76007e-05
1.79116e-05
1.81939e-05
1.85279e-05
1.89555e-05
1.92171e-05
1.97121e-05
2.0163e-05
2.06261e-05
2.11194e-05
2.16932e-05
2.21526e-05
2.27552e-05
2.33196e-05
2.38196e-05
2.42216e-05
2.47329e-05
2.49894e-05
2.5265e-05
2.5472e-05
2.57292e-05
2.59461e-05
2.5973e-05
2.60828e-05
2.61574e-05
2.61317e-05
2.60783e-05
2.59154e-05
2.59237e-05
2.58168e-05
2.55616e-05
2.54103e-05
2.51625e-05
2.49674e-05
2.47882e-05
2.45805e-05
2.4417e-05
2.39936e-05
2.36552e-05
2.33226e-05
2.29738e-05
2.2544e-05
2.21831e-05
2.17443e-05
2.1288e-05
2.09108e-05
2.04299e-05
1.99709e-05
1.95199e-05
1.90333e-05
1.86065e-05
1.81344e-05
1.77484e-05
1.73537e-05
1.70532e-05
1.6784e-05
1.64202e-05
1.62949e-05
1.58685e-05
1.57084e-05
1.54229e-05
1.52039e-05
1.49048e-05
1.46512e-05
1.43361e-05
1.40562e-05
1.37488e-05
1.34341e-05
1.30901e-05
1.27448e-05
1.23461e-05
1.19946e-05
1.16131e-05
1.12259e-05
1.07936e-05
1.03579e-05
9.85332e-06
9.31362e-06
8.71804e-06
8.12312e-06
7.46496e-06
6.79285e-06
6.0517e-06
5.30096e-06
4.57374e-06
3.90567e-06
3.16572e-06
2.44985e-06
1.99257e-06
1.7433e-06
1.18223e-06
3.56246e-07
1.30675e-07
2.04357e-07
1.17991e-07
2.71431e-08
3.03114e-08
6.51797e-08
6.29359e-08
4.56885e-08
2.55874e-08
4.77573e-08
9.73134e-08
1.26078e-07
9.80712e-08
5.44139e-08
6.11501e-08
5.59522e-08
4.70922e-08
8.82725e-08
1.54871e-07
7.38837e-08
1.60922e-07
2.27282e-08
2.08758e-07
7.2627e-08
3.07178e-08
6.10773e-08
3.65715e-08
1.73123e-08
4.07986e-09
5.1311e-08
3.14315e-08
1.83185e-09
1.68839e-07
4.31686e-07
9.13154e-09
2.13278e-09
5.90388e-07
1.10285e-06
8.97157e-07
1.16702e-06
1.87515e-06
2.52893e-06
2.87067e-06
3.33212e-06
4.01794e-06
4.84101e-06
5.64938e-06
6.50127e-06
7.31325e-06
8.09478e-06
8.76619e-06
9.4593e-06
1.01046e-05
1.07562e-05
1.12661e-05
1.17397e-05
1.21071e-05
1.24896e-05
1.27907e-05
1.31595e-05
1.3523e-05
1.38719e-05
1.42282e-05
1.45326e-05
1.49235e-05
1.5199e-05
1.55932e-05
1.58348e-05
1.60797e-05
1.62807e-05
1.6391e-05
1.6686e-05
1.68191e-05
1.7044e-05
1.74222e-05
1.74356e-05
1.79307e-05
1.79462e-05
1.82547e-05
1.8519e-05
1.86687e-05
1.88112e-05
1.95321e-05
1.93429e-05
1.95107e-05
2.00844e-05
2.12507e-05
2.20952e-05
2.21907e-05
2.58864e-05
2.7476e-05
2.76777e-05
2.76186e-05
2.76775e-05
2.7648e-05
2.76778e-05
2.77244e-05
2.78097e-05
2.81045e-05
2.847e-05
2.8896e-05
2.92115e-05
2.94359e-05
2.9694e-05
2.98804e-05
2.9802e-05
2.96253e-05
2.94672e-05
2.93577e-05
2.91588e-05
2.89676e-05
2.88744e-05
2.8923e-05
2.89453e-05
2.87841e-05
2.86113e-05
2.86457e-05
2.87391e-05
2.8905e-05
2.87432e-05
2.86852e-05
2.81944e-05
2.75316e-05
2.59212e-05
2.31361e-05
1.99495e-05
1.69759e-05
1.42235e-05
1.20044e-05
1.02136e-05
8.67422e-06
7.69537e-06
6.51007e-06
5.60987e-06
5.08003e-06
4.82908e-06
3.7505e-06
2.6121e-06
1.83271e-06
1.30674e-06
1.24177e-06
1.52415e-06
1.81558e-06
1.95903e-06
2.24664e-06
2.65394e-06
3.07177e-06
2.84588e-06
2.22892e-06
1.59628e-06
8.97968e-07
8.15993e-07
8.22725e-07
6.51501e-07
5.24459e-07
2.47954e-07
4.99392e-07
5.65412e-07
5.34775e-07
6.22424e-07
5.51557e-07
5.30994e-07
7.27507e-07
8.47584e-07
1.06432e-06
1.07389e-06
1.0059e-06
8.75258e-07
8.73991e-07
1.70721e-06
3.61926e-06
6.61553e-06
9.60616e-06
1.25858e-05
1.55117e-05
1.8759e-05
2.23255e-05
2.59951e-05
2.45315e-05
3.22412e-05
2.89081e-05
1.55966e-05
1.18205e-05
7.63785e-06
2.70199e-06
8.5223e-07
2.66783e-07
6.4038e-08
2.39228e-08
2.39798e-08
2.80556e-08
2.99214e-08
3.00438e-08
3.07513e-08
2.99108e-08
3.03638e-08
2.96237e-08
2.96211e-08
2.89041e-08
2.95146e-08
2.75776e-08
2.83132e-08
2.74982e-08
2.77491e-08
2.73185e-08
2.74402e-08
2.74167e-08
2.73004e-08
2.77852e-08
2.75272e-08
2.8187e-08
2.74749e-08
2.94318e-08
2.85867e-08
2.94435e-08
2.95708e-08
3.02458e-08
2.96787e-08
3.04224e-08
3.01845e-08
3.05276e-08
2.96357e-08
2.81734e-08
2.26341e-08
2.66733e-08
6.59437e-08
9.14186e-08
5.04127e-08
5.14218e-07
2.85e-06
6.4356e-06
8.87955e-06
1.01414e-05
1.16713e-05
1.25257e-05
1.31077e-05
1.32172e-05
1.35467e-05
1.35886e-05
1.37688e-05
1.38203e-05
1.39596e-05
1.4034e-05
1.41608e-05
1.42403e-05
1.43258e-05
1.44736e-05
1.44872e-05
1.46759e-05
1.47255e-05
1.48779e-05
1.49743e-05
1.51671e-05
1.527e-05
1.54825e-05
1.56067e-05
1.58282e-05
1.59648e-05
1.61952e-05
1.63603e-05
1.66744e-05
1.69098e-05
1.73111e-05
1.76565e-05
1.80334e-05
1.8359e-05
1.85965e-05
1.87563e-05
1.89929e-05
1.90177e-05
1.90844e-05
1.90903e-05
1.91079e-05
1.90482e-05
1.91681e-05
1.93046e-05
1.98487e-05
2.02844e-05
2.06287e-05
2.11204e-05
2.16531e-05
2.20552e-05
2.27292e-05
2.33422e-05
2.39472e-05
2.46434e-05
2.53984e-05
2.60372e-05
2.68354e-05
2.75946e-05
2.81997e-05
2.87256e-05
2.93667e-05
2.96276e-05
2.99592e-05
3.02107e-05
3.04964e-05
3.06933e-05
3.06461e-05
3.07356e-05
3.07356e-05
3.05906e-05
3.04088e-05
3.01046e-05
3.00363e-05
2.97518e-05
2.92985e-05
2.90077e-05
2.85942e-05
2.82303e-05
2.78121e-05
2.73997e-05
2.71031e-05
2.64195e-05
2.58672e-05
2.5312e-05
2.47305e-05
2.40444e-05
2.34764e-05
2.27799e-05
2.20858e-05
2.14938e-05
2.07659e-05
2.00857e-05
1.94196e-05
1.8706e-05
1.80956e-05
1.74073e-05
1.68581e-05
1.62701e-05
1.58186e-05
1.53633e-05
1.487e-05
1.45614e-05
1.39956e-05
1.36712e-05
1.32088e-05
1.28368e-05
1.23396e-05
1.19299e-05
1.14056e-05
1.09482e-05
1.0431e-05
9.90065e-06
9.31702e-06
8.70766e-06
8.01707e-06
7.35344e-06
6.64471e-06
5.93508e-06
5.19946e-06
4.49473e-06
3.79224e-06
3.1237e-06
2.46195e-06
1.87298e-06
1.37328e-06
1.0005e-06
6.05103e-07
2.80248e-07
1.55687e-07
1.31741e-07
7.7902e-08
2.66608e-08
2.77249e-08
4.96845e-08
3.75364e-08
2.51489e-08
3.81e-08
3.52741e-08
4.03341e-08
5.35465e-08
3.84397e-08
2.80639e-08
3.07325e-08
3.50419e-08
2.50098e-08
2.54405e-08
1.50821e-08
2.52836e-08
3.43945e-08
6.07306e-08
5.00993e-08
6.38482e-08
6.91422e-08
5.26317e-08
1.45153e-08
7.71734e-08
1.33282e-08
4.95971e-08
1.97511e-07
2.63227e-08
2.33285e-08
1.3972e-08
2.46558e-08
2.84166e-08
1.34093e-08
1.81148e-08
1.32432e-08
2.39474e-09
6.67591e-09
1.67053e-08
2.66489e-09
3.52233e-09
1.30033e-08
1.51865e-08
7.08519e-09
1.18826e-08
1.50464e-08
4.0372e-08
3.63385e-08
6.18561e-08
1.2441e-07
3.19037e-07
5.11924e-07
8.25683e-07
1.20666e-06
1.74148e-06
2.14378e-06
2.66654e-06
3.35163e-06
4.22839e-06
4.98921e-06
5.74712e-06
6.4399e-06
7.22726e-06
7.97763e-06
8.75885e-06
9.51674e-06
1.02012e-05
1.08965e-05
1.14477e-05
1.21507e-05
1.26195e-05
1.3297e-05
1.3719e-05
1.42129e-05
1.46682e-05
1.49653e-05
1.55125e-05
1.58369e-05
1.61936e-05
1.68601e-05
1.69061e-05
1.77028e-05
1.77798e-05
1.83253e-05
1.86681e-05
1.90582e-05
1.9256e-05
2.02471e-05
2.01464e-05
2.05079e-05
2.1431e-05
2.30222e-05
2.38102e-05
2.47781e-05
2.87562e-05
3.07333e-05
3.10201e-05
3.11558e-05
3.15033e-05
3.16927e-05
3.19471e-05
3.21881e-05
3.24118e-05
3.28802e-05
3.34467e-05
3.41246e-05
3.46771e-05
3.50755e-05
3.55111e-05
3.58767e-05
3.59116e-05
3.58014e-05
3.56018e-05
3.54154e-05
3.51944e-05
3.50727e-05
3.50265e-05
3.50934e-05
3.51825e-05
3.51066e-05
3.49658e-05
3.50705e-05
3.52569e-05
3.56252e-05
3.55724e-05
3.5615e-05
3.51721e-05
3.44313e-05
3.28078e-05
2.97357e-05
2.56521e-05
2.17514e-05
1.82344e-05
1.51994e-05
1.2928e-05
1.07893e-05
9.43383e-06
8.18595e-06
6.99162e-06
6.2073e-06
6.1136e-06
5.28184e-06
3.73672e-06
2.42951e-06
1.5597e-06
1.22386e-06
1.50245e-06
2.12494e-06
2.4755e-06
2.87725e-06
3.53384e-06
4.39652e-06
4.43172e-06
3.61277e-06
2.39661e-06
8.23617e-07
9.36978e-07
8.68083e-07
6.56549e-07
6.26543e-07
3.12676e-07
7.15598e-07
7.69388e-07
6.06656e-07
6.88912e-07
6.66958e-07
7.32852e-07
8.24143e-07
9.03296e-07
1.05178e-06
1.08299e-06
1.04438e-06
1.0877e-06
1.55934e-06
2.57144e-06
4.67509e-06
8.10601e-06
1.10082e-05
1.27598e-05
1.57511e-05
1.88101e-05
2.26641e-05
2.6466e-05
2.90203e-05
3.66547e-05
3.83827e-05
2.49507e-05
1.47857e-05
9.77192e-06
3.99782e-06
8.59039e-07
2.23274e-07
1.05199e-07
5.2156e-08
3.67246e-08
3.21116e-08
3.0906e-08
3.03388e-08
3.08909e-08
3.00301e-08
3.02374e-08
2.95573e-08
2.97607e-08
2.87326e-08
2.9662e-08
2.75394e-08
2.83338e-08
2.76109e-08
2.78563e-08
2.73296e-08
2.75691e-08
2.76074e-08
2.74033e-08
2.78629e-08
2.77013e-08
2.8305e-08
2.74515e-08
2.95104e-08
2.86804e-08
2.96003e-08
2.94234e-08
3.02294e-08
3.01377e-08
3.07325e-08
3.02838e-08
3.06746e-08
3.07375e-08
2.90192e-08
2.71842e-08
2.62969e-08
2.96331e-08
5.75521e-08
2.40964e-08
9.94087e-08
1.89746e-06
4.80873e-06
8.06523e-06
9.02755e-06
1.02746e-05
1.13606e-05
1.18275e-05
1.22704e-05
1.2583e-05
1.27596e-05
1.30052e-05
1.3103e-05
1.33075e-05
1.33874e-05
1.35767e-05
1.3675e-05
1.38344e-05
1.39672e-05
1.40967e-05
1.42443e-05
1.44224e-05
1.45581e-05
1.47973e-05
1.49657e-05
1.52152e-05
1.53961e-05
1.56571e-05
1.58609e-05
1.6142e-05
1.63629e-05
1.67165e-05
1.70225e-05
1.74483e-05
1.78229e-05
1.82815e-05
1.861e-05
1.89453e-05
1.91135e-05
1.92837e-05
1.94472e-05
1.94603e-05
1.95013e-05
1.95561e-05
1.95313e-05
1.95824e-05
1.98112e-05
2.01593e-05
2.08448e-05
2.13531e-05
2.17263e-05
2.2361e-05
2.29656e-05
2.35183e-05
2.43227e-05
2.50564e-05
2.57741e-05
2.66551e-05
2.75362e-05
2.83287e-05
2.92661e-05
3.01724e-05
3.08074e-05
3.14299e-05
3.21317e-05
3.23543e-05
3.27216e-05
3.30037e-05
3.32642e-05
3.33951e-05
3.32608e-05
3.33114e-05
3.31926e-05
3.29025e-05
3.25748e-05
3.21398e-05
3.19723e-05
3.14736e-05
3.0833e-05
3.04057e-05
2.98236e-05
2.92631e-05
2.85763e-05
2.79817e-05
2.75573e-05
2.66158e-05
2.58773e-05
2.5112e-05
2.43145e-05
2.34048e-05
2.26642e-05
2.17371e-05
2.08549e-05
2.00838e-05
1.91541e-05
1.82958e-05
1.74597e-05
1.65531e-05
1.58011e-05
1.49102e-05
1.42345e-05
1.34499e-05
1.28629e-05
1.22153e-05
1.16209e-05
1.1088e-05
1.04213e-05
9.88063e-06
9.24829e-06
8.67226e-06
7.9355e-06
7.29481e-06
6.4817e-06
5.79567e-06
5.01616e-06
4.30542e-06
3.55534e-06
2.90245e-06
2.21837e-06
1.72904e-06
1.22945e-06
8.78461e-07
4.86091e-07
3.13476e-07
1.51246e-07
1.11546e-07
5.32668e-08
5.47379e-08
3.79418e-08
5.04392e-08
3.36825e-08
3.54845e-08
2.8598e-08
3.67464e-08
3.24157e-08
4.96715e-08
4.05285e-08
4.80129e-08
3.71975e-08
4.63712e-08
3.94226e-08
4.43905e-08
4.01271e-08
4.90124e-08
4.47138e-08
6.01594e-08
4.62765e-08
7.3679e-08
7.28701e-08
1.05591e-07
8.28342e-08
8.8211e-08
5.33291e-08
4.99571e-08
5.1382e-08
4.20653e-08
4.81721e-08
7.09076e-08
1.29218e-07
6.77287e-08
9.09385e-08
8.54651e-08
4.10186e-08
3.72048e-09
7.03618e-08
2.94327e-08
2.92284e-08
2.30175e-08
2.65003e-08
2.68024e-08
2.68894e-08
1.82747e-08
2.11314e-08
2.22998e-08
1.59761e-08
1.58971e-08
1.26659e-08
1.57371e-08
1.19569e-08
1.61775e-08
1.26357e-08
1.58351e-08
8.51083e-09
1.23522e-08
5.08302e-09
1.37883e-08
4.86899e-09
1.9259e-08
9.68524e-09
3.59802e-08
2.60997e-08
5.94432e-08
5.92429e-08
2.78012e-07
4.93206e-07
7.281e-07
9.98711e-07
1.49012e-06
2.0506e-06
2.61513e-06
3.37115e-06
4.12516e-06
5.06925e-06
5.84073e-06
6.93022e-06
7.65133e-06
8.70157e-06
9.36592e-06
1.01753e-05
1.09206e-05
1.14498e-05
1.22541e-05
1.28303e-05
1.33185e-05
1.4291e-05
1.44263e-05
1.54812e-05
1.56885e-05
1.6455e-05
1.68411e-05
1.75724e-05
1.77995e-05
1.88925e-05
1.91059e-05
1.96727e-05
2.10343e-05
2.25727e-05
2.39472e-05
2.52775e-05
2.90677e-05
3.14292e-05
3.17427e-05
3.20565e-05
3.27386e-05
3.32152e-05
3.37549e-05
3.4263e-05
3.46741e-05
3.53145e-05
3.60814e-05
3.70072e-05
3.78251e-05
3.84191e-05
3.90357e-05
3.96034e-05
3.98049e-05
3.98342e-05
3.96498e-05
3.938e-05
3.91076e-05
3.9062e-05
3.91162e-05
3.9204e-05
3.93454e-05
3.93859e-05
3.93137e-05
3.94919e-05
3.97578e-05
4.03286e-05
4.04683e-05
4.06532e-05
4.03862e-05
3.97023e-05
3.82641e-05
3.54827e-05
3.11223e-05
2.64599e-05
2.23264e-05
1.84894e-05
1.57004e-05
1.3042e-05
1.11204e-05
9.75043e-06
8.31177e-06
7.14713e-06
6.97556e-06
6.52514e-06
5.08151e-06
3.37328e-06
2.10093e-06
1.56039e-06
1.48263e-06
1.80775e-06
2.18734e-06
2.69831e-06
3.6215e-06
5.15529e-06
5.9323e-06
5.49476e-06
4.01077e-06
8.81829e-07
1.07313e-06
7.77182e-07
7.23543e-07
8.85285e-07
6.3349e-07
9.08948e-07
9.78029e-07
8.8384e-07
9.40742e-07
8.92229e-07
8.87514e-07
8.80764e-07
9.09888e-07
9.70271e-07
8.69933e-07
9.04027e-07
9.7316e-07
1.48543e-06
2.32535e-06
4.52849e-06
8.22474e-06
1.16666e-05
1.38679e-05
1.59294e-05
1.90524e-05
2.24218e-05
2.65775e-05
3.18171e-05
3.88578e-05
4.28722e-05
3.42779e-05
2.11569e-05
1.0244e-05
5.03632e-06
1.06384e-06
1.06907e-08
6.33731e-09
1.73673e-08
2.58749e-08
2.94682e-08
3.04849e-08
3.02949e-08
3.08427e-08
2.99547e-08
3.00898e-08
2.97781e-08
2.98105e-08
2.88761e-08
2.9564e-08
2.76127e-08
2.83243e-08
2.75259e-08
2.78293e-08
2.73345e-08
2.74977e-08
2.74576e-08
2.7329e-08
2.77358e-08
2.74822e-08
2.81837e-08
2.74001e-08
2.945e-08
2.86448e-08
2.95972e-08
2.93892e-08
3.0159e-08
2.96409e-08
3.03735e-08
3.0185e-08
3.09713e-08
3.32153e-08
4.1356e-08
5.49759e-08
4.38561e-08
9.79258e-09
5.72624e-09
5.31434e-08
4.11604e-08
1.63641e-07
2.53494e-06
5.96208e-06
7.66067e-06
8.45302e-06
9.7992e-06
1.0153e-05
1.07819e-05
1.10442e-05
1.13743e-05
1.16026e-05
1.17997e-05
1.20185e-05
1.21592e-05
1.23759e-05
1.25155e-05
1.27014e-05
1.28778e-05
1.30501e-05
1.32334e-05
1.3476e-05
1.36475e-05
1.39446e-05
1.41261e-05
1.44487e-05
1.46357e-05
1.49713e-05
1.51816e-05
1.55516e-05
1.58022e-05
1.62549e-05
1.65773e-05
1.705e-05
1.73893e-05
1.7829e-05
1.80882e-05
1.83255e-05
1.84593e-05
1.85759e-05
1.87033e-05
1.87059e-05
1.87868e-05
1.88777e-05
1.88795e-05
1.91075e-05
1.95038e-05
2.00429e-05
2.07968e-05
2.13023e-05
2.16915e-05
2.24541e-05
2.31104e-05
2.38115e-05
2.46803e-05
2.54942e-05
2.63213e-05
2.73529e-05
2.83021e-05
2.92207e-05
3.02473e-05
3.12459e-05
3.18447e-05
3.25419e-05
3.32379e-05
3.33933e-05
3.37827e-05
3.40761e-05
3.42527e-05
3.42883e-05
3.40617e-05
3.40465e-05
3.37682e-05
3.33156e-05
3.28363e-05
3.22816e-05
3.19881e-05
3.12515e-05
3.0443e-05
2.98782e-05
2.91199e-05
2.83434e-05
2.73875e-05
2.66444e-05
2.60845e-05
2.49029e-05
2.40192e-05
2.30625e-05
2.20771e-05
2.09852e-05
2.01111e-05
1.89845e-05
1.79725e-05
1.70551e-05
1.59654e-05
1.49681e-05
1.39938e-05
1.29218e-05
1.20513e-05
1.0975e-05
1.01838e-05
9.18387e-06
8.44116e-06
7.54176e-06
6.80551e-06
5.97773e-06
5.19147e-06
4.4237e-06
3.71061e-06
3.05926e-06
2.36728e-06
1.86433e-06
1.23949e-06
8.98474e-07
4.743e-07
3.15271e-07
1.31659e-07
1.21211e-07
3.7625e-08
6.92264e-08
2.15095e-08
4.37524e-08
1.8399e-08
3.87101e-08
2.04428e-08
4.05578e-08
2.2376e-08
4.0272e-08
2.16083e-08
3.72106e-08
2.44587e-08
4.57533e-08
2.94023e-08
4.83108e-08
2.64951e-08
4.16954e-08
2.41752e-08
3.79378e-08
2.82368e-08
4.11451e-08
3.43456e-08
4.20367e-08
3.31581e-08
3.65557e-08
3.12308e-08
3.83157e-08
3.51339e-08
3.27957e-08
2.32998e-08
1.98819e-08
2.43357e-08
2.75907e-08
5.00175e-08
5.16252e-08
6.91344e-08
6.85937e-08
5.53965e-08
4.57922e-08
2.21553e-08
6.96768e-08
3.73338e-08
6.4841e-08
7.70072e-08
3.1506e-08
1.57779e-07
2.86807e-08
7.7833e-08
1.92258e-08
3.84576e-08
1.12476e-08
2.54443e-08
6.93408e-09
1.74615e-08
6.14927e-09
1.45852e-08
6.06453e-09
1.18376e-08
5.37106e-09
9.6221e-09
4.78427e-09
8.95542e-09
6.95782e-09
1.08113e-08
1.1299e-08
1.07772e-08
1.54676e-08
9.00383e-09
1.46502e-08
7.40189e-09
1.31971e-08
8.20002e-09
1.42288e-08
8.09528e-09
1.03611e-08
1.59258e-08
1.50304e-08
2.12551e-08
2.25847e-08
7.42081e-08
4.41137e-08
1.99538e-07
2.0904e-07
7.46668e-07
6.75121e-07
1.63678e-06
1.88701e-06
2.7942e-06
3.26828e-06
4.12356e-06
5.0127e-06
5.73665e-06
6.87273e-06
7.79028e-06
8.52253e-06
9.83695e-06
1.02024e-05
1.14491e-05
1.18997e-05
1.28657e-05
1.32811e-05
1.4414e-05
1.46781e-05
1.5776e-05
1.63664e-05
1.72922e-05
1.89542e-05
2.05391e-05
2.21527e-05
2.38975e-05
2.75362e-05
2.98447e-05
3.01677e-05
3.06429e-05
3.16757e-05
3.24841e-05
3.33617e-05
3.41918e-05
3.48375e-05
3.56645e-05
3.66209e-05
3.77919e-05
3.89003e-05
3.97178e-05
4.05217e-05
4.13104e-05
4.17302e-05
4.19561e-05
4.18542e-05
4.15198e-05
4.11865e-05
4.12028e-05
4.13804e-05
4.15101e-05
4.17003e-05
4.18821e-05
4.19155e-05
4.21754e-05
4.25101e-05
4.32637e-05
4.36596e-05
4.40315e-05
4.40252e-05
4.35341e-05
4.23595e-05
4.01615e-05
3.61836e-05
3.11471e-05
2.65322e-05
2.19952e-05
1.85913e-05
1.55086e-05
1.29296e-05
1.12439e-05
9.6409e-06
8.06111e-06
7.45694e-06
7.13643e-06
6.15594e-06
4.59575e-06
3.03823e-06
2.01746e-06
1.40278e-06
1.6352e-06
1.83885e-06
1.81148e-06
2.40712e-06
4.50033e-06
6.41443e-06
7.15259e-06
6.98423e-06
2.7527e-06
1.57276e-06
1.12362e-06
1.13693e-06
1.29628e-06
9.10697e-07
1.05652e-06
1.12382e-06
1.05912e-06
9.88857e-07
9.6843e-07
9.23431e-07
9.96996e-07
9.24597e-07
1.08702e-06
9.52667e-07
9.02884e-07
8.57939e-07
1.305e-06
1.93307e-06
3.52128e-06
6.66984e-06
1.09147e-05
1.37324e-05
1.61388e-05
1.80463e-05
2.1381e-05
2.57008e-05
3.13413e-05
3.73105e-05
4.25066e-05
4.09344e-05
3.20281e-05
1.48636e-05
5.73523e-06
2.15574e-06
2.6651e-07
5.75086e-08
3.95858e-08
3.38255e-08
3.04007e-08
3.01227e-08
3.03661e-08
3.09237e-08
2.99919e-08
3.01159e-08
2.97143e-08
2.97893e-08
2.89598e-08
2.96093e-08
2.76922e-08
2.83668e-08
2.76255e-08
2.77935e-08
2.73501e-08
2.7574e-08
2.76443e-08
2.7381e-08
2.78486e-08
2.76921e-08
2.83051e-08
2.75709e-08
2.95539e-08
2.8819e-08
2.95281e-08
2.93519e-08
3.01601e-08
2.98767e-08
3.03391e-08
2.99962e-08
2.9869e-08
2.99765e-08
3.16345e-08
3.37486e-08
3.89005e-08
4.03572e-08
3.11925e-08
6.73742e-08
9.90614e-08
1.01552e-07
1.38576e-06
3.94799e-06
5.88796e-06
6.88567e-06
7.9763e-06
8.50302e-06
9.05867e-06
9.42537e-06
9.72014e-06
1.00334e-05
1.02227e-05
1.04953e-05
1.06605e-05
1.09032e-05
1.10523e-05
1.12943e-05
1.14418e-05
1.16935e-05
1.18566e-05
1.21376e-05
1.23364e-05
1.26463e-05
1.2829e-05
1.31507e-05
1.33607e-05
1.3685e-05
1.39511e-05
1.43022e-05
1.46102e-05
1.50324e-05
1.53624e-05
1.57491e-05
1.60362e-05
1.63545e-05
1.65464e-05
1.66621e-05
1.68029e-05
1.68608e-05
1.70158e-05
1.70398e-05
1.72093e-05
1.73419e-05
1.74497e-05
1.7884e-05
1.84351e-05
1.90704e-05
1.97773e-05
2.02496e-05
2.06602e-05
2.15308e-05
2.22165e-05
2.30353e-05
2.38927e-05
2.47779e-05
2.57052e-05
2.68336e-05
2.77959e-05
2.88236e-05
2.98828e-05
3.09134e-05
3.14248e-05
3.21731e-05
3.28051e-05
3.28767e-05
3.32756e-05
3.35534e-05
3.35861e-05
3.35134e-05
3.31934e-05
3.30789e-05
3.26094e-05
3.19874e-05
3.1362e-05
3.06976e-05
3.02441e-05
2.92562e-05
2.83049e-05
2.75998e-05
2.66614e-05
2.56627e-05
2.4464e-05
2.36118e-05
2.2913e-05
2.15201e-05
2.05396e-05
1.94147e-05
1.82808e-05
1.70553e-05
1.60857e-05
1.47977e-05
1.37081e-05
1.26641e-05
1.14457e-05
1.03138e-05
9.19272e-06
7.89325e-06
6.85812e-06
5.52785e-06
4.67542e-06
3.53123e-06
2.914e-06
2.02143e-06
1.74219e-06
9.27023e-07
7.65359e-07
2.9202e-07
2.86089e-07
6.68882e-08
1.23475e-07
3.54472e-08
5.85254e-08
2.9516e-08
5.72676e-08
1.61143e-08
6.53801e-08
1.24481e-08
5.40267e-08
1.83082e-08
5.14111e-08
2.55278e-08
5.04552e-08
2.58265e-08
4.62186e-08
2.61452e-08
4.25353e-08
2.6925e-08
4.29636e-08
3.13864e-08
4.05322e-08
2.73671e-08
3.40181e-08
2.931e-08
3.87892e-08
3.45195e-08
4.44502e-08
3.93864e-08
4.53479e-08
3.42121e-08
3.90884e-08
3.34515e-08
4.56588e-08
4.18277e-08
5.27738e-08
4.16252e-08
5.13637e-08
4.7699e-08
7.47979e-08
7.3481e-08
8.41215e-08
6.35147e-08
5.36905e-08
4.47163e-08
3.68326e-08
4.99569e-08
5.65436e-08
7.41075e-08
9.62586e-08
5.85553e-08
5.79561e-08
6.46062e-08
3.83037e-08
6.6705e-08
5.4543e-08
5.22434e-09
4.10699e-08
6.05482e-09
3.76923e-08
6.26398e-09
3.51167e-08
6.08715e-09
2.81892e-08
5.30209e-09
2.45949e-08
5.64557e-09
2.46776e-08
7.15711e-09
2.54421e-08
8.60987e-09
2.03421e-08
8.0262e-09
1.36261e-08
8.31322e-09
9.93525e-09
9.64189e-09
1.01858e-08
1.10026e-08
1.42369e-08
7.51161e-09
2.24186e-08
3.05506e-09
4.73889e-08
1.05644e-09
6.43328e-08
3.46274e-10
5.44887e-08
7.50315e-10
4.44021e-08
4.55823e-10
6.5823e-08
1.48541e-10
9.67159e-08
1.74849e-09
1.11593e-07
6.39771e-08
9.65561e-07
9.39506e-08
2.67533e-07
1.01182e-06
1.21892e-06
1.9351e-06
2.42555e-06
2.6882e-06
3.90253e-06
4.29552e-06
5.6138e-06
6.41145e-06
7.55104e-06
8.07676e-06