/*--------------------------------*- C++ -*----------------------------------*\
| =========                 |                                                 |
| \\      /  F ield         | OpenFOAM: The Open Source CFD Toolbox           |
|  \\    /   O peration     | Version:  v2006                                 |
|   \\  /    A nd           | Website:  www.openfoam.com                      |
|    \\/     M anipulation  |                                                 |
\*---------------------------------------------------------------------------*/
FoamFile
{
    version     2.0;
    format      ascii;
    class       volScalarField;
    location    "75";
    object      ducSensor;
}
// * * * * * * * * * * * * * * * * * * * * * * * * * * * * * * * * * * * * * //

dimensions      [0 0 0 0 0 0 0];


internalField   nonuniform List<scalar> 
93840
(
0
0.037746
0.00818727
0.0152525
0
0
0.0197251
0.00741188
0.00625737
0
0.0026171
0
0
0
0
0
0
0
0
0.0358991
0.0235041
0
0
0.00924495
0.074735
0
0
0.0107923
0.0052908
0
0.0127337
0.0178594
0
0
0
0
0
0
0
0.000679356
0
0
0
0
0
0
0
0
0
0
0
0
0
0
0
0
0
0
0
0
0
0
0
0
0
0
5.77806e-05
9.37576e-05
2.70714e-05
0.00014204
0
0
0.00025992
9.90443e-05
9.76626e-05
0.000243516
0.000193941
0.000220878
0.000210989
0.000262378
0.000238828
0.000226565
0.000274657
0.000296731
0.00033346
0.000333215
0.0002998
0.000306005
0.000304703
0.000348777
0.000381806
0.000393936
0.000414504
0.000416693
0.000416016
0.000428819
0.000431285
0.000452134
0.000481156
0.00050617
0.000511563
0.000516989
0.000670832
0.000822922
0.000568571
0.000308228
0.000468106
0.00069422
0.000716477
0.000704191
0.000674236
0.000642251
0.000670836
0.000654905
0.000597183
0.000540223
0.000571905
0.000552759
0.000475415
0.000416809
0.000362965
0.00029508
0.000144119
0
0
0
0
0
0
0
0
0
0
0
0
0
0
0
0
0
0
0
0
0
0
0
0
0
0
0
0
0
0
0
0
0
0
0
0
0
0
0
0
0
0
0
0
0
0
0
0
0
0
0
0
0
0
0
0
0
0
0
0
0
0
0
0
0
0
0
0
0
0
0
0
0
0
0
0
0
0
0
0
0
0
0
0
6.37274e-05
3.74944e-05
0.000109765
9.27368e-05
0
7.20348e-05
0
1.34704e-05
7.54963e-05
0.000166037
7.70161e-05
0
0
0
9.9657e-05
9.66652e-05
7.12862e-05
0.000267534
0.000220061
0.0003439
0.000355685
0.000264426
5.11075e-05
0
0
0
0
0
0
0.000230781
3.46025e-05
0
0
0.00011836
8.6753e-05
9.39243e-05
6.37191e-06
3.02513e-05
0.000170252
0.000154776
0.000592557
0.0015478
0.00279177
0.00467153
0.00484253
0.00168348
9.47445e-05
0.000121413
0.000174376
0.0001616
0.000392596
0.000632502
0.000798787
0.000864387
0.000836838
0.000820351
0.00082437
0.000827236
0.000811262
0.000831826
0.00105486
0.00120719
0.000896454
0.000555387
0.000799394
0.00115988
0.00102691
0.000705631
0.000735081
0.000967434
0.00107197
0.00101964
0.00101864
0.00105444
0.00109501
0.0011194
0.0011614
0.00122108
0.00122802
0.00134172
0.00144904
0.00156402
0.00166073
0.00188966
0.00189588
0.00227263
0.00227463
0.00286465
0.0036288
0.00418225
0.0103495
0.0300325
0.084213
0.10149
0.088759
0.0215987
0
0
0.0121806
0.0101773
0.00299192
0
0
0
0.00106419
0
0
0
0
0.00802815
0
0
0
0
0.133562
0.161537
0
0.0638285
0.167363
0.190078
0.114447
0.048307
0.0417871
0.0813978
0.0249634
0
0
0
0.973095
0.0192419
0
0
0
0
0
0
0.183961
0.0301726
0
0
0.00936104
0.058923
0
0.0488027
0
0
0
0
0.0252716
0
0.018952
0
0
0.0111158
0.00579498
0
0
0
0.00200988
0.0345988
0
0
0.0413317
0
0.0313381
0
0
0
0.0158456
0
0.0196834
0
0.0293681
0
0
0
0.00729032
0.0131778
0
0.0712185
0
0.10336
0
0.0149367
0.0501097
0.041304
5.89595e-05
0.00248952
0.964718
0
0.13885
0.0718624
0
0
0
0
0
0.030003
0
0
0.00543321
0
0
0.00949042
0.00214415
0
0
0
0
0.00784371
0
0
0
0.00341158
0.000613512
0
0.00198965
0
0
0
0.00301297
0
0.00239726
0.000535989
0.000289989
0.00041809
0
0.00122457
0.000723652
0.000523159
0
0.00014888
0.000992827
0.00111464
0
0.000631471
2.32177e-05
0.00139197
0.000163635
0.000242668
0.00132572
0.000667594
0.00063464
0.000901656
0.000837051
0.00136175
0.00129138
0.00121543
0.00119264
0.00128443
0.00131445
0.0013187
0.00152933
0.00167448
0.00179886
0.00173999
0.00178065
0.00194839
0.00206349
0.00219027
0.00233982
0.00239684
0.00250777
0.00303485
0.00374373
0.00305299
0.00202992
0.00274455
0.00369218
0.0039641
0.00396255
0.00384792
0.00367767
0.00381287
0.00376655
0.00328962
0.00300787
0.00332573
0.00321018
0.00277284
0.00208163
0.00186896
0.000917118
0.000328795
0
0
0
0
0
0
0
0
0
0
0
0
0
0
0
0
0
0
0
0
0
0
0
0
0
0
0
0
0
0
0
0
0
0
0
0
0
0
0
0
0
0
0
0
0
0
0
0
0
0
0
0
0
0.0195276
0.127779
0.165766
0.204777
0.122537
0.622749
0.590157
0.238881
0
0
0
0
0
0
0
0
0
0
0
0
0
0
0
0
0
0
0
0
0
0
0
0
0
0
0
0
0
0
0
0
0
0
0
0
0
0
0
7.58709e-05
0
0
0.000282036
0.00122816
0.000775636
0
0
0
0
0
0
0
0
0
0
0
0
0
0
0
0.000445826
0.000238139
0.000496135
0.00490659
0.0147194
0.0248796
0.0384107
0.0249236
0.00938588
0.00342171
0.00320624
0.00351443
0.00320458
0.00417191
0.00557027
0.00647923
0.00647783
0.00628221
0.00613066
0.00605488
0.00588371
0.00569548
0.0057649
0.00636673
0.00644169
0.00514728
0.00421255
0.00478367
0.005159
0.00452398
0.00385995
0.00387611
0.00388126
0.00366843
0.00330819
0.00310793
0.00285236
0.00253943
0.00204379
0.00168708
0.00110911
0.000403667
0
0
0
0
0
0
0
0
0
0
0
0
0
0
0
0
0
0
0
0
0.00135791
1.05849e-05
0.000176312
0
0.0111875
0.126829
0
0.0108321
0.048079
0.0105939
0.0409267
0.00245271
0.0405501
0.0198446
0.0248641
0
0.027528
0.0261676
0
0
0
0
0
0
0
0.412464
0.331563
0
0
0.0794971
0.0888096
0
0.0384031
0.0104053
0.0447198
0.0201279
0.00127064
0.00607601
0.0781716
0.0314675
0.00996345
0
0.0609178
0
0.0606948
0
0
0
0
0
0.00614573
0
0
0
0
0
0.019247
0
0.0286642
0
0.0467315
0
0
0.0316186
0.0263298
0.00293531
0.00577281
0.0436726
0
0.0415292
0.20115
0
0.00920512
0.019235
0.0146423
0
0
0
0
0
0
0
0.0281996
0
0
0.00829482
0.0819871
0
0
0.109021
0
0
0
0.134596
0
0
0
0
0
0
0
0
0
0
0
0
0
0
0
0
0
0
0
0
0
0
0
0
0
0
0
0
0
0
0
0
0
0.000544799
0
0.00143219
0.00138364
0.000972876
0
0.00011135
0.00139067
0.00227077
0.00151147
0.00183661
0.00151792
0.00276777
0.00223294
0.00316538
0.00208524
0.00286105
0.00275986
0.00333688
0.00381409
0.00370563
0.00345758
0.00347387
0.00347275
0.00381126
0.00424265
0.0043861
0.0046861
0.00482052
0.00482633
0.00497501
0.00506258
0.00528282
0.00548736
0.00567103
0.00573254
0.00573399
0.00744044
0.00948827
0.00703462
0.00380717
0.00560006
0.0079585
0.00846654
0.0084137
0.00826878
0.00789666
0.00829632
0.0083707
0.00759901
0.0072121
0.00758433
0.00738803
0.00700738
0.00603527
0.00624245
0.00426752
0.00351621
0
0
0
0
0
0
0
0
0
0
0
0
0
0
0
0
0
0
0
0
0
0
0
0
0
0
0
0
0
0
0
0
0
0
0
0
0
0
0
0
0
0
0
0
0
0
0
0
0
0
0
0
0
0
0
0
0
0
0
0
0
0
0
0
0
0
0
0
0
0
0
0
0
0
0
0
0
0.0297903
0
0.0157033
0
0.00277488
0.00704849
0.00926517
0
0
0
0.005092
0
0
0
0
0
0
0.00216654
0
0
0
0
0.000371045
0
0.00221876
0.00322413
0.00191524
0.00373134
0.0031213
0
0
0
0
0
0
0
0.00115588
0
0
0
0
0
0.000308639
0.000283941
0.00104879
0.00112365
0.00117928
0.00829627
0.022261
0.0431438
0.0458304
0.060473
0.0144067
0.000992201
0.00123923
0.00183105
0.00223932
0.00472098
0.00780497
0.00995465
0.0102413
0.00995999
0.0096695
0.00980261
0.00977631
0.00945635
0.00971811
0.0118798
0.0129924
0.0093752
0.00642057
0.00897312
0.0119771
0.0104413
0.00743022
0.00778069
0.00970588
0.0101496
0.00945372
0.00923614
0.00936048
0.00938381
0.00941264
0.00942685
0.00950168
0.0089551
0.00901024
0.00858454
0.00862298
0.00766966
0.00850059
0.00696852
0.00756511
0.00611617
0.00759513
0.00526703
0.00429678
0.00336545
0.00359335
0.00680792
0.00933562
0.00801197
0.00577034
0.00488795
0.00368657
0
0
0.00682831
0.00893433
0.00249501
0
0.013038
0.0379995
0
0
0.0977046
0
0.169819
0.018413
0.0287293
0.00720902
0
0
0.0121035
0.00124677
0.0132113
0.00712242
0
0
0
0.292047
0.940465
0.870825
0
0
0.0632748
0.0936958
0
0
0.0105513
0.00497405
0
0
0
0.0298931
0
0
0
0.012759
0.00826004
0.106877
0
0
0
0
0
0.00636023
0
0
0
0.0262305
0
0.0301298
0.00734601
0.0225905
0
0.0390652
0
0
0.0309784
0
0.0129969
0.0137005
0
0
0.031513
0
0.0251941
0
0.0552048
0.00687832
0.0168796
0
0
0
0
0.0966339
0.0706028
0.206592
0
0
0.0109253
0.037333
0
0
0.139136
0
0
0
0
0
0
0
0
0
0
0
0.00994593
0
0
0
0
0
0
0
0
0
0
0
0
0
0
0
0
0
0
0
0
0
0
0.000653112
0
0
0
0.00118476
0.00169918
9.47107e-06
0
0.000821755
0.00149663
0.00171258
0.00152729
0.00195144
0.000735508
0.00200853
0.00226474
0.00184804
0.00341123
0.00178343
0.00252672
0.00270776
0.00301811
0.00367952
0.00361483
0.00332936
0.00333291
0.00341649
0.00371621
0.00406078
0.00429112
0.00462152
0.0047542
0.00471686
0.0048588
0.00500192
0.00524883
0.00549606
0.00573047
0.00584203
0.00594662
0.00766192
0.00972552
0.00725984
0.00408776
0.005939
0.00845337
0.00910221
0.00917359
0.00909661
0.00871318
0.00926482
0.00932683
0.00857082
0.00819297
0.00868041
0.00878356
0.00826222
0.00740967
0.00740667
0.00512991
0.00337267
0
0
0
0
0
0
0
0
0
0
0
0
0
0
0
0
0
0
0
0
0
0
0
0
0
0
0
0
0
0
0
0
0
0
0
0
0
0
0
0
0
0
0
0
0
0
0
0
0
0
0
0
0
0
0
0
0
0
0.0953749
0.402373
0
0
0
0
0
0
0
0
0
0
0
0
0
0
0
0
0
0
0.429298
0
0
0.0497584
0.304548
0.224938
0.120672
0.0522145
0.0181393
0.0377557
0.00302742
0
0.0196022
0.0020722
0
0
0
1.1595e-05
0
0
0.000782064
0.000942382
0.0011719
0
0.0011874
0.000380963
0.00433147
0.00391304
0
0
0
0
0
0
0
0
0
0
0
0
0
0
0
0.00313903
0.00028505
0
0.0113474
0.0245612
0.0649368
0.0492418
0.0835632
0.0162792
0.000320449
0.000555332
0.00200405
0.00268039
0.00519494
0.00853377
0.0110457
0.0114651
0.0110151
0.010734
0.0109046
0.0108192
0.0104534
0.0106873
0.0127469
0.0136967
0.010151
0.00721352
0.00954109
0.012164
0.0105925
0.00786776
0.00810529
0.00966211
0.00994992
0.00926274
0.00897371
0.00895795
0.0088064
0.00861774
0.00838699
0.00822948
0.00745658
0.00728246
0.00658286
0.00620211
0.00490171
0.0053416
0.00359003
0.00373021
0.00238152
0.00284913
0.00104275
0
0.00050715
0
0
0.00248511
0
0.0040996
0
0
0.000991131
0
0
0.001119
0
0.00042974
0.00319393
0
0.00910306
0
0.0135644
0
0.000604608
0.0376932
0
0
0.272336
0
0
0
0.107497
0.152395
0.0556672
0.00933326
0
0
0.182017
0.135064
0
0.582357
0
0.281204
0.0784759
0
0.0292763
0
0.0232872
0.00238915
0
0.0206481
0.000469695
0
0
0.027292
0
0
0
0
0
0
0
0.0177526
0
0.0039371
0
0.0320437
0.00338911
0
0
0
0
0.0293327
0
0.0141067
0.0397785
0
0
0
0
0.00226336
0
0
0
0
0.00735786
0
0.020894
0
0.0383649
0.0130273
0.0528589
0
0.000282425
0.172195
0
0.00119949
0.00266442
0.0244137
0
0.00404414
0
0.0125886
0
0.00455537
0.0123473
0
0
0
0
0
0
0
0
0
0
0
0
0
0
0
0
0
0
0
0
0
0
0
0
0
0
0
0
0
0
0
0
0
0
0.000161642
0.00130304
0.000980905
0
2.86003e-05
0.00372578
0.000370098
0.00215355
0.00158438
0.000937989
0.00245634
0.00248874
0.002148
0.00321596
0.00225755
0.00252832
0.00319625
0.00319778
0.00407316
0.00404259
0.00363469
0.00370938
0.00376959
0.00416725
0.00452528
0.00480568
0.00516181
0.00530767
0.00524167
0.00541831
0.00557119
0.00588379
0.0062435
0.00653966
0.00669616
0.00688493
0.00891884
0.0112696
0.0083286
0.00473158
0.00697759
0.010117
0.0109556
0.0112131
0.0111491
0.0108631
0.0116956
0.0119288
0.0112828
0.0109505
0.0117983
0.0115642
0.0113529
0.010658
0.0108879
0.00814981
0.00475321
0
0
0
0
0
0
0
0
0
0
0
0
0
0
0
0
0
0
0
0
0
0
0
0
0
0
0
0
0
0
0
0
0
0
0
0
0
0
0
0
0
0
0
0
0
0
0
0
0
0
0
0
0
0
0
0
0.200177
0
0.480694
0
0
0
0
0
0
0
0
0
0
0
0
0
0
0
0
0
0.579724
0
0
0
0
0
0.16402
0.144141
0.128033
0.0727021
0.132072
0
0.104777
0
0.0555863
0.0661504
0.0182349
0.0257924
0
0.00350587
0
0
0.0048362
0.0118339
0.00382323
0.00685576
0.00491603
0.00749697
0.0111285
0.00718547
0
0
0
0
0
0
0
0
0
0
0
0
0
0
0.000287791
0.00347382
0.00178668
0
0.0118482
0.0361779
0.0687515
0.0745203
0.0921152
0.024733
0
0
0.00174412
0.0019529
0.0050623
0.00922796
0.0122692
0.0129592
0.0123619
0.0119886
0.0121619
0.0120527
0.0116857
0.0119063
0.0142246
0.0153423
0.0114812
0.00803315
0.0105113
0.0135937
0.0118252
0.00872805
0.00893722
0.0106605
0.0110502
0.0103415
0.0100009
0.00998144
0.00983216
0.00964614
0.00930993
0.00909914
0.0082573
0.00817193
0.00750801
0.00708279
0.00592232
0.00589093
0.00466919
0.00396774
0.00337529
0.00277507
0.00127707
0.000671718
0
0.00100525
0.000558361
0
0
0.00165166
0
0
0.00081185
0.00041905
0
0.000560036
0
0.0014654
0
0
0.00149752
0.00755309
0.00962894
0
0
0
0
0
0.0307903
0.00476438
0.0029381
0.0533585
0.0274726
0.0743669
0.0510982
0.0234945
0
0
0.0790306
0.0700685
0
0.0423428
0
0
0.776784
0
0.090246
0
0.0173818
0.00658421
0
0
0.00328535
0
0
0
0
0.17815
0
0
0.0957605
0
0
0
0.00190891
0
0
0
0
0.0270085
0
0
0
0.0411885
0
0
0.0326176
0
0
0.0101927
0.0478228
0.000722507
0
0.001735
0.0216796
0
0
0
0
0.0269968
0
0
0
0
0.0293725
0.186201
0
0.0120798
0.00938031
0.0229193
0.0152929
0
0.0287835
0.00256454
0.00793058
0.0165623
0
0
0
0
0
0
0
0
0
0
0
0.00020634
0
0
0
0
0
0
0
0
0
0
0
0
0
0
0
0
0
0
0
0.00242348
0
0
0
0
0.00510902
0
0.000682813
0
0.00181683
1.57237e-06
0.00369032
0.00123426
0.00107046
0.00267415
0.00254411
0.00200276
0.00383335
0.0022246
0.0030329
0.00306186
0.00366669
0.00432615
0.00434297
0.00397464
0.00397707
0.0041182
0.00449677
0.00494183
0.00523508
0.0057165
0.00586448
0.00584123
0.00604072
0.00625702
0.00664488
0.00697858
0.0073309
0.00758036
0.00784927
0.0102783
0.0130705
0.00978687
0.00572817
0.00843685
0.0120506
0.0133157
0.0138822
0.0141526
0.0139488
0.0153212
0.0160338
0.015388
0.0152821
0.016963
0.0176485
0.0171062
0.0169379
0.0180281
0.0133195
0.00913549
0
0
0
0
0
0
0
0
0
0
0
0
0
0
0
0
0
0
0
0
0
0
0
0
0
0
0
0
0
0
0
0
0
0
0
0
0
0
0
0
0
0
0
0
0
0
0
0
0
0
0
0
0
0
0
0
0
0
0.329866
0.545117
0
0
0
0
0
0
0
0
0
0
0
0
0
0
0
0
0
0
0
0
0
0.120041
0.591649
0.124767
0.180908
0.114199
0.275131
0.0618105
0.113938
0.179922
0
0.0404906
0.24593
0.0472064
0.191584
0
0
0
0.0371268
0.0565965
0.0426185
0.036532
0.0487568
0.0434318
0.0464914
0.0237888
0.000343796
0
0
0
0
0
0
8.86332e-05
0
0
0
0
0
0
0
0
0.00330174
0.000384529
0.0143566
0.0458538
0.0826067
0.103592
0.107884
0.0319745
0
0
6.98052e-05
0.00155511
0.00534638
0.0100517
0.0137361
0.0143884
0.0135928
0.013147
0.0134021
0.0133138
0.0128472
0.0130686
0.0154936
0.0167651
0.0125487
0.00888393
0.011576
0.0147299
0.0129227
0.009638
0.009804
0.01165
0.012014
0.0112465
0.0108729
0.0108255
0.0106443
0.0104401
0.0101616
0.00997726
0.00918572
0.0089754
0.00842404
0.00791492
0.00679995
0.00658534
0.00551337
0.00434726
0.00417572
0.00284555
0.00188561
0.000419471
0
0.000371966
0.00179074
0.000205902
0
0
0.00114588
0.000310066
0.00113181
0
0.00169515
0
0
0.00295029
0
0.00320014
0.00253571
0.0012671
0
0.00772483
0
0.00406181
0.00470257
0.00703183
0
0
0.0495673
0.0708604
0
0.02811
0.0511755
0.0447663
0
0
0.0168818
0.0292906
0
0.0176732
0
0
0.00818095
0.288657
0.0637888
0
0.0202353
0.0190645
0
0
0
0
0
0.0184954
0.0376661
0
0.0638688
0
0
0.0239377
0
0
0
0
0
0.00177761
0
0.0351196
0
0.00192641
0
0.0418127
0.00332297
0
0.027571
0
0.0430006
0
0.00938642
0.00223595
0.0334854
0
0.00211868
0
0.00944366
0.0320583
0
0
0.00225485
0
0
0.0205298
0.0252287
0.202335
0.146457
0.0321183
0.0387821
0.00427229
0
0
0.015895
0
0.0189866
0
0
0
0
0
0
0
0
0
0
0
0
0
0
0
0
0
0
0
0
0
0
0
0
0
0
0
0
0
0
0
0
0
0
0
0
0
0.00160807
0
0
0.00223517
0.00251677
0.00161694
0.000512319
0.00108783
0.00203754
0.00372572
0.00216466
0.00233524
0.00288023
0.00321097
0.00269129
0.00360315
0.003632
0.00468296
0.00461535
0.00421484
0.00427168
0.00439217
0.00488604
0.00532008
0.0057241
0.0062011
0.00636202
0.00635075
0.00661128
0.00687508
0.00736276
0.00787646
0.00834926
0.00869632
0.00914937
0.0120182
0.0152264
0.0115053
0.00703047
0.0104363
0.0151276
0.0169047
0.0181197
0.0186987
0.0190401
0.0213792
0.0230995
0.0233807
0.0240777
0.02735
0.0303819
0.0294952
0.0303057
0.0359258
0.0284034
0.0148933
0
0
0
0
0
0
0
0
0
0
0
0
0
0
0
0
0
0
0
0
0
0
0
0
0
0
0
0
0
0
0
0
0
0
0
0
0
0
0
0
0
0
0
0
0
0
0
0
0
0
0
0
0
0
0
0
0.150229
0.287271
0.395791
0
0
0
0
0
0
0
0
0
0
0
0
0
0
0
0
0
0
0
0
0
0
0.102042
0
0.379832
0.166661
0.180481
0.2619
0
0
0.0710049
0.253872
0.0989981
0.0625666
0.00132068
0
0.129163
0
0
0
0.09511
0.183541
0.0797718
0.180046
0.106189
0.211594
0.0819376
0.00478712
0
0
0
0
0
0.00124666
0
0
0.000109717
0.00801924
0
0
0
0
0.00785244
0.00437868
0
0.016872
0.0569679
0.107579
0.138805
0.132379
0.0413952
0
0
0.00105909
0.000817546
0.00482081
0.0108225
0.0152043
0.0162226
0.0151623
0.0144943
0.0146731
0.0144748
0.0140444
0.0142322
0.0168135
0.0181671
0.0137774
0.00970381
0.0124007
0.0159658
0.0139731
0.0103604
0.0105047
0.0124198
0.0128746
0.0121307
0.011731
0.0116527
0.0115009
0.0113013
0.0109242
0.0106276
0.00978885
0.00958567
0.00922051
0.00863906
0.00782039
0.00729773
0.00604094
0.00555286
0.00424889
0.00353036
0.00182649
0.000550908
0
0.000716832
0.000461711
0.000600062
0.00176011
0
0.00118052
0
0
0.000925211
0
0
0.000576317
0.00152025
0.000190128
0
0.000288688
0.000928367
0
0
0
0.00225496
0.0031283
0.00302267
0
0
0.0101129
0.000673006
0
0
0.0379871
0.0706001
0.0126525
0
0
0
0.0722824
0.0276862
0
0
0
0.602095
0.42123
0.141866
0.0267711
0.0231697
0
0
0
0
0
0
0
0
0
0.0361101
0
0.00261163
0
0
0
0
0
0.0366048
0
0.0411144
0
0.00869417
0
0.0299916
0
0.00965275
0.0131198
0
0
0
0
0
0
0.00491006
0
0.0251788
0.0896055
0
0.0149047
0
0.0193324
0
0.0479817
0.032069
0.0424589
0.151332
0
0
0.192812
0
0.0287709
0
0
0.0224971
0
0
0
0
0
0
0
0
0
0
0
0.0036985
0
0
0
0
0
0
0
0
0
0
0
0
0
0
0
0
0
0
0
0
0
0.000947192
0
0
0
0.00256507
0.000576689
0
0
0.000798311
0.00189023
0.000456361
0.00229549
0.000200286
0.00205342
0.00343692
0.00307783
0.00166707
0.00305474
0.00376254
0.00271543
0.00380596
0.00388418
0.00497415
0.00489069
0.00455391
0.00453914
0.00475412
0.00524978
0.00577718
0.00624616
0.00687484
0.00707855
0.00713852
0.0074528
0.00785293
0.00847366
0.00899389
0.00963964
0.0102028
0.0109062
0.0145711
0.0186965
0.0145239
0.00942056
0.0139562
0.0200452
0.023248
0.0260392
0.0283667
0.0305005
0.0362613
0.0428981
0.0468182
0.0537538
0.0759322
0.0674127
0.10729
0.116654
0.196662
0.102831
0.217561
0
0
0
0
0
0
0
0
0
0
0
0
0
0
0
0
0
0
0
0
0
0
0
0
0
0
0
0
0
0
0
0
0
0
0
0
0
0
0
0
0
0
0
0
0
0
0
0
0
0
0
0
0
0
0
0
0.512742
0.0659526
0.400964
0.325546
0
0
0
0
0
0
0
0
0
0
0
0
0
0
0
0
0
0
0
0
0.251655
0
0
0
0.153111
0.3364
0.394426
0.0564944
0.176216
0
0.0585225
0.220928
0.132367
0.254729
0
0.0124245
0
0
0.0298752
0.081042
0.204494
0.0915203
0.279908
0.186514
0.481643
0.245378
0.160814
0
0
0
0
0
0.094151
0.000557497
0
0
0.0658097
0.0149345
0
0
0.011837
0.00734175
0.0236804
0
0.00782429
0.114129
0.154342
0.194041
0.182548
0.055199
0
0
0
0.000355685
0.00552069
0.0126573
0.0181981
0.0189087
0.0172427
0.0163716
0.0163972
0.0161712
0.0155665
0.0156913
0.0182863
0.0197851
0.0149866
0.0106222
0.0135375
0.017104
0.0151079
0.0113375
0.0113839
0.0134182
0.0138321
0.0129999
0.0125683
0.0124286
0.0122216
0.0119489
0.0116793
0.01139
0.0106892
0.0103042
0.00986758
0.00934495
0.00861891
0.0080515
0.0067885
0.00600349
0.00525603
0.00334085
0.0028991
0.000388472
0
0.00097101
0.000843349
0.00197496
0
0.00129773
0
0.000153401
0
0.000611572
0
0.00122435
0.00100866
0
0
0
0
0
0.00364212
0
0.00356946
0.000308333
0
0
0.00557855
0.00871783
0.00681669
0.0053135
0
0
0
0
0.0321592
0.06212
0
0
0.112686
0.048613
0
0
0
0.0318487
0
0
0.00582901
0.0239501
0.00432395
0.0048506
0
0
0
0.00482799
0
0
0
0
0.00141546
0
0
0
0
0.0113427
0.00063524
0
0
0
0
0.00199556
0.0354595
0.0341913
0.0164121
0
0.0164461
0
0
0.00666656
0.0287283
0.00557149
0.00780528
0
0.0235753
0
0.0219102
0
0.00453401
0
0.0687941
0
0
0.0366402
0.0750102
0.172667
0
0.124061
0.268976
0.00493984
0
0.000864304
0
0
0
0
0
0.00112579
0
0
0
0
0
0
0
0
0
0
0
0
0
0
0
0
0
0
0
0
0
0
0
0
0
0
0
0
0.00186899
0.000525968
0
0
0
0
0.00179856
0
0
0.00136261
0
0.00126855
0.000420982
0.00208996
0.00294697
0.00271561
0.00296164
0.00219971
0.00295101
0.00380903
0.00312329
0.00375625
0.00429235
0.0051825
0.00530412
0.00479733
0.00498424
0.00517252
0.0057175
0.00635345
0.00699927
0.00761994
0.00787374
0.00801006
0.008476
0.0090262
0.00985957
0.0107678
0.0117369
0.012608
0.013868
0.0186856
0.024347
0.0197655
0.0140428
0.0213154
0.0334137
0.0399282
0.0479612
0.0549332
0.0669906
0.0959402
0.108309
0.148104
0.176492
0.24631
0.203316
0.34107
0.278909
0.445009
0.130636
0.320653
0
0
0
0
0
0
0
0
0
0
0
0
0
0
0
0
0
0
0
0
0
0
0
0
0
0
0
0
0
0
0
0
0
0
0
0
0
0
0
0
0
0
0
0
0
0
0
0
0
0
0
0
0
0
0
0
0.288257
0.464327
0.398821
0
0.0419633
0
0
0
0
0
0
0
0
0
0
0
0
0
0
0
0
0
0
0
0
0
0.200988
0
0.000748924
0.048452
0.274583
0.1599
0
0.0873631
0
0
0.272464
0.0864849
0.131681
0.0927281
0
0
0.0878142
0.210432
0.292667
0.146331
0.203903
0.263169
0.486716
0.189031
0.119893
0
0
0
0
0
0.0341132
0.123405
0.0261408
0.00761159
0.00731311
0.0130138
0.0345621
0.0477119
0.0324543
0.0189502
0.0438119
0.00326836
0.0168731
0.204369
0.262813
0.284173
0.264583
0.0821575
0
0
0
0.000456264
0.00714959
0.0164433
0.0225928
0.0232382
0.0208118
0.0191106
0.0188418
0.0183048
0.01764
0.0176112
0.0202931
0.021742
0.0166905
0.0118101
0.014626
0.0186756
0.0164222
0.0122091
0.0122351
0.0142697
0.0147634
0.0139658
0.0135176
0.0133258
0.013163
0.0128804
0.0124817
0.0119745
0.0112211
0.0107961
0.0105057
0.0101004
0.00923653
0.00895468
0.00748807
0.00659868
0.00603656
0.00354864
0.00325528
0.00021637
0
0.00157808
0.00023734
0.000509643
0
0.000618507
0.000434633
0.000509709
0
1.43591e-05
5.6072e-05
0
0.00252631
0
0
0.00166138
0
0
0.00209738
0
0.00322607
0
0
0
0.00486912
0.0018294
0
0.00685395
0.00346605
0
0
0
0.0246509
0.042433
0
0
0.0437612
0.0226095
0.025325
0
0
0
0.00563128
0
0
0.0818455
0.0115343
0.0129466
0
0
0
0
0.473725
0
0
0
0
0.0174629
0
0
0
0.0302211
0
0
0
0
0.0037155
0
0
0.0245685
0
0
0.0148206
0
0.0358553
0
0.0174551
0.010507
0.0575012
0
0
0
0
0.0484528
0.0457216
0
0
0
0
0
0.092129
0.110595
0.0315367
0.0159313
0.428263
0
0
0.0105704
0.00524868
0
0
0
0.0174272
0
0
0
0
0
0
0
0
0
0
0
0
0
0
0.000101856
0
0
0
0
0
0
0
0
0
0
0
0
0
0
0.00100461
0
0.00214393
0
0.00155418
0
0
0
0
0.00454765
0.000101055
0.00378377
0
0.0016132
0.00375555
0.00249626
0.00338701
0.00263309
0.00248861
0.00449374
0.00330779
0.00396926
0.00470745
0.00570767
0.00558086
0.0054709
0.00537425
0.00577632
0.00635362
0.00714987
0.00797731
0.0088171
0.00923188
0.00954356
0.0101995
0.0111184
0.012353
0.0135771
0.0153184
0.0173243
0.0202244
0.0302112
0.0422668
0.0364249
0.0289624
0.0521531
0.0678085
0.111339
0.145216
0.188182
0.232874
0.31485
0.313336
0.407375
0.439167
0.4743
0.356014
0.423204
0.330884
0.430752
0.133895
0.349395
0
0
0
0
0
0
0
0
0
0
0
0
0
0
0
0
0
0
0
0
0
0
0
0
0
0
0
0
0
0
0
0
0
0
0
0
0
0
0
0
0
0
0
0
0
0
0
0
0
0
0
0
0
0
0
0
0.367561
0.319931
0.476399
0.434969
0.325848
0
0
0
0
0
0
0
0
0
0
0
0
0
0
0
0
0
0
0
0.168478
0
0.2885
0.247637
0.0220659
0
0
0.435224
0.000117272
0.164512
0.147557
0
0.0873373
0
0
0.100204
0.115567
0
0
0.0333342
0.309599
0.0845698
0.196707
0.269587
0.203465
0.220625
0.164856
0
0
0
0
0
0
0.0808579
0.0831995
0.158518
0
0.0170496
0.0920203
0.160248
0.078604
0.142443
0
0.158773
0.0988803
0.479908
0.493028
0.445547
0.438316
0.14832
0
0
0.0089108
0.0010072
0.0106259
0.0229399
0.0332638
0.03137
0.0267613
0.0239494
0.0230699
0.0221877
0.0209555
0.0206065
0.0231715
0.0246909
0.0188187
0.0132799
0.016339
0.020385
0.0181182
0.0136339
0.0134342
0.0155994
0.0160343
0.0150646
0.0145604
0.0142665
0.0139753
0.0135788
0.0132976
0.0127793
0.0121951
0.0115748
0.0111481
0.010541
0.0100704
0.00930605
0.00834706
0.00737798
0.00599298
0.0049892
0.00323833
0.000873054
0
0.00272199
0.00064272
0
9.38709e-05
0
0.00275908
0
0
0
0
0.00376099
0
0
0
0.00212571
0.00259043
0
0
0.00340303
0.000640513
0
0.0024461
0.00146288
0
0
0
0
0.0191767
0.0174713
0
0
0.0215607
0.0136086
0
0
0.000933418
0.00791288
0.0183749
0.00913544
0.000298873
0.00482014
0
0
0
0.129388
0.0414451
0.0279878
0.00360802
0
0
0
0
0
0.0993438
0
0.0166304
0.00937404
0.0115377
0
0
0
0
0.0100577
0.00596736
0.0346066
0.0109266
0
0
0.0280387
0.0319768
0
0.0246052
0.0202517
0
0.000378611
0
0.018842
0.0190211
0
0.0269669
0.00303756
0.00475648
0
0.0215265
0
0
0
0
0
0.077926
0.0911523
0
0.168765
0.416743
0
0.115026
0
0
0
0
0
0.00444055
0
0
0
0
0
0
0
0
0
0
0
0
0
0
0
0
0
0
0
0
0
0
0
0
0
0
0
0
0
0
0.00720038
0
0
0
0.00402123
0
0.00155608
0
0.000593028
0.00212081
0
0.00164265
0.00330486
0.0016849
0.00215494
0.00333412
0.00241749
0.00397043
0.0038321
0.00344474
0.00450176
0.0049896
0.0061318
0.00622481
0.00589987
0.00615865
0.00650102
0.00728697
0.00828646
0.00952572
0.0105479
0.0113071
0.0121186
0.0137235
0.0157051
0.0188063
0.0230098
0.0282971
0.0346927
0.04515
0.0736145
0.113327
0.0969633
0.105664
0.178468
0.205153
0.299233
0.362665
0.404024
0.41558
0.45512
0.409384
0.437215
0.406383
0.434976
0.356163
0.398509
0.338518
0.380425
0.152851
0.254879
0
0
0
0
0
0
0
0
0
0
0
0
0
0
0
0
0
0
0
0
0
0
0
0
0
0
0
0
0
0
0
0
0
0
0
0
0
0
0
0
0
0
0
0
0
0
0
0
0
0
0
0
0
0
0
0
0.302665
0.387872
0.503308
0.0571271
0
0
0
0
0
0
0
0
0
0
0
0
0
0
0
0
0
0
0.50424
0
0
0
0
0.352056
0.496474
0.0461041
0
0
0.238262
0
0
0.0820703
0.0773941
0.173753
0
0
0
0.0697581
0.121519
0
0
0.157885
0.272302
0.235844
0.269295
0.353855
0.139795
0
0
0
0
0
0
0.0257817
0.0580829
0.0405296
0.0361176
0.0911766
0.0919929
0.147139
0.0566498
0.193201
0
0.0827617
0.159761
0.694173
0.679611
0.60145
0.648851
0.282188
0
0
0.0142456
0.0135669
0.0289851
0.0478647
0.0471398
0.0566623
0.0408473
0.0340923
0.031146
0.0287103
0.0265979
0.025515
0.0276729
0.0288066
0.0222484
0.0156752
0.0184329
0.0231348
0.0204002
0.0151483
0.0148803
0.0169625
0.0174323
0.0164587
0.0158962
0.0155146
0.0152558
0.0148123
0.0142792
0.0135016
0.0127092
0.0121614
0.0117205
0.0112825
0.010543
0.0100341
0.00916887
0.00773469
0.00673008
0.00527264
0.00359866
0.00109218
0
0.00154844
0.000578327
0.000221941
0.00160586
0.00026121
0
0.00157874
0.000417364
0.00112989
0
0.000352874
1.92733e-05
0
0.000234794
0
0.00592723
0
0
0
0.000449136
0
0.00576224
0.00251722
0
0
0
0
0.00332297
0.0254501
0.00457946
0
0.00304215
0.0147803
0.0115089
0.0038724
0
0
0
0.00880066
0
0
0
0
0.0402264
0.00725903
0.0247614
0.0850822
0.0066109
0.000478333
0
0
0
0.0664348
0
0
0
0.029229
0
0
0
0
0
0
0
0
0.0133365
0
0
0.0345251
0
0
0.0358773
0
0
0
0
0
0
0
0
0
0.0854344
0
0.00337404
0
0.0101852
0
0
0
0.0804988
0.108045
0
0.160878
0.434127
0.293594
0.150225
0
0
0
0
0.0304357
0
0
0
0
0
0
0
0
0
0
0
0
0
0
0
0
0
0
0
0
0
0
0
0
0
0
0
0
0
0
0
0
0
0
0
0
0
0.0017938
0.000913956
0.0010221
0.000409499
0
0.000306118
0.00367192
0.00362235
0.00269116
0.00202276
0.00359984
0.00432392
0.00372223
0.00435579
0.00435518
0.0061613
0.00684399
0.00722581
0.00719207
0.00764815
0.0083117
0.00961091
0.0117525
0.0141668
0.0169325
0.0202431
0.0233865
0.0290665
0.0367154
0.04759
0.0664992
0.0790606
0.111497
0.141693
0.227323
0.304991
0.239885
0.24966
0.328179
0.35162
0.428448
0.448085
0.449167
0.453073
0.475819
0.42999
0.413304
0.391067
0.432794
0.412399
0.351553
0.349055
0.345928
0.246185
0.241823
0
0
0
0
0
0
0
0
0
0
0
0
0
0
0
0
0
0
0
0
0
0
0
0
0
0
0
0
0
0
0
0
0
0
0
0
0
0
0
0
0
0
0
0
0
0
0
0
0
0
0
0
0
0
0
0
0.422723
0.413715
0.43499
0.216091
0.351908
0
0
0
0
0
0
0
0
0
0
0
0
0
0
0
0
0
0
0
0
0
0
0
0
0.650087
0.0773673
0
0
0.152551
0
0
0
0.202215
0.0435255
0.165462
0
0
0.0461081
0.162955
0.0568322
0.186088
0.175993
0.327138
0.285931
0.36306
0.199356
0
0
0
0
0
0
0.0987078
0.0649077
0
0
0.191056
0.135176
0.172399
0
0.206806
0.0976304
0.136405
0.14001
0.820168
0.878876
0.76301
0.813425
0.484503
0
0
0.0344522
0.0514532
0.0629182
0.148592
0.121789
0.137073
0.0976849
0.0686035
0.0615355
0.0501473
0.0424133
0.0373362
0.0379776
0.0385833
0.0278355
0.0192301
0.0220696
0.0265628
0.0235737
0.0176632
0.0168917
0.0191021
0.0194523
0.0181778
0.0174859
0.0169582
0.0164568
0.0158175
0.0154333
0.0145413
0.0139533
0.0131185
0.0124994
0.0120352
0.0107371
0.0107666
0.00966933
0.00801483
0.0075572
0.00589743
0.00362234
0.00209202
0
0.00097234
0.00185394
0.000334889
0.0017404
0
0.00193523
0.000996288
0
0
0.00389368
0.00131481
0
6.37035e-05
0.000923067
0.00023633
0
0.00133628
0.00251869
0
0.000253374
0.00248472
0
0.00218373
0
0.00407743
0.00804158
0
0
0.00355198
0.00625692
0
0
0
0.0283664
0.0128257
0
0
0
0.0108034
0
0.001652
0.0013943
0
0.0233735
0.00230504
0.00801999
0.186635
0.0203927
0.00396193
0
0
0
0
0
0
0.0382073
0.0333569
0
0.0130638
0
0.0248746
0
0.00276164
0
0.0327614
0.0128554
0
0
0.0331543
0.0259304
0
0.0201002
0
0.0388375
0.001226
0
0.00787581
0.0041497
0
0
0.0107824
0.0216483
0
0
0
0
0
0
0
0.0493838
0.0756215
0.0290996
0.182222
0.372058
0.127807
0
0
0
0
0.401766
0
0
0
0
0
0
0
0
0
0
0
0
0
0
0
0
0
0
0.00142911
0
0
0
0
0
0
0
0
0
0
0
0
0
0
0
0
0.00350524
0
0
0.00041525
0.0020992
0.00149886
0.00274078
0.000987918
0
0.00454713
0.00356644
0.0057174
0.00353021
0.00516099
0.00514971
0.00594008
0.00657235
0.00706967
0.00940526
0.0113157
0.0128536
0.0131734
0.014618
0.0187102
0.0210432
0.0295335
0.0370184
0.0490913
0.0599426
0.0784012
0.104848
0.13529
0.16081
0.20151
0.21501
0.253885
0.273868
0.381579
0.400267
0.286715
0.287503
0.367865
0.375773
0.436191
0.448653
0.447269
0.432824
0.442854
0.401376
0.398166
0.409678
0.41252
0.401893
0.334079
0.306216
0.324815
0.232164
0.249474
0
0
0
0
0
0
0
0
0
0
0
0
0
0
0
0
0
0
0
0
0
0
0
0
0
0
0
0
0
0
0
0
0
0
0
0
0
0
0
0
0
0
0
0
0
0
0
0
0
0
0
0
0
0
0
0
0.318107
0.384165
0.565805
0.0791236
0
0
0
0
0
0
0
0
0
0
0
0
0
0
0
0
0
0
0
0
0
0
0
0
0
0.144301
0.388762
0.195796
0
0
0.0242084
0.126953
0
0
0
0
0.120503
0
0
0.133159
0.146003
0.144683
0.191838
0.276886
0.30412
0.351564
0.123419
0
0
0
0
0
0
0.105769
0.176532
0.0813062
0
0.0642983
0.121712
0.16493
0
0.131039
0.0935457
0.12719
0.161072
0.841433
0.944961
0.857499
0.911427
0.561531
0
0
0.0736398
0.0411091
0.144467
0.198226
0.289932
0.27609
0.240275
0.157769
0.151185
0.120638
0.0972678
0.0805352
0.0739101
0.0563659
0.0532211
0.0297497
0.0311689
0.0364372
0.0297627
0.0212393
0.0197714
0.0212185
0.0211763
0.019717
0.0188882
0.0182844
0.017884
0.0172732
0.0165248
0.0154977
0.014593
0.0138074
0.0133196
0.0126415
0.0116058
0.0113259
0.00995066
0.00905834
0.00766221
0.00613805
0.00390278
0.00264167
0
0.00043558
0.00110165
0.00279842
0
0.00166422
0.0014377
0
0.0029956
0.00131955
0
0
0.00147596
0
0
0
0
0.000829689
0.00227055
0.0012072
0
0.0044881
0
0.000136596
0.00306957
0
0.00631983
0.00386627
0.00109041
0
0
0.023766
0.00472962
0
0.00821823
0.023039
0.0179388
0
0
0.00314168
0
0.00642593
0.00415438
0
0.00154769
0
0.0148281
0.0170452
0.0346285
0.0095414
0
0
0
0
0
0
0
0.0306592
0
0.00469123
0
0.0128906
0
0.0250896
0
0
0.0248601
0
0
0.0406398
0
0.00878281
0.0126988
0.0427138
0.0195755
0.00100153
0
0
0.00459248