/*--------------------------------*- C++ -*----------------------------------*\
| =========                 |                                                 |
| \\      /  F ield         | OpenFOAM: The Open Source CFD Toolbox           |
|  \\    /   O peration     | Version:  v2006                                 |
|   \\  /    A nd           | Website:  www.openfoam.com                      |
|    \\/     M anipulation  |                                                 |
\*---------------------------------------------------------------------------*/
FoamFile
{
    version     2.0;
    format      ascii;
    class       volScalarField;
    location    "75";
    object      nut;
}
// * * * * * * * * * * * * * * * * * * * * * * * * * * * * * * * * * * * * * //

dimensions      [0 2 -1 0 0 0 0];


internalField   nonuniform List<scalar> 
93840
(
2.77155e-08
2.76046e-08
2.78925e-08
2.7777e-08
2.83092e-08
2.78537e-08
2.938e-08
2.87893e-08
2.94859e-08
2.93859e-08
2.99395e-08
2.98224e-08
3.03979e-08
2.95241e-08
2.96376e-08
2.97153e-08
3.077e-08
3.41807e-08
5.37561e-08
1.35802e-07
3.17848e-07
8.45134e-07
3.5197e-06
8.09136e-06
1.09162e-05
1.15092e-05
1.15223e-05
1.31344e-05
1.36217e-05
1.39793e-05
1.28941e-05
1.25274e-05
1.24715e-05
1.20816e-05
1.20373e-05
1.18815e-05
1.17e-05
1.16794e-05
1.14215e-05
1.1465e-05
1.11901e-05
1.12728e-05
1.09847e-05
1.10701e-05
1.07983e-05
1.08543e-05
1.06196e-05
1.06493e-05
1.04619e-05
1.04525e-05
1.02952e-05
1.02891e-05
1.01259e-05
1.01052e-05
1.00244e-05
1.00284e-05
9.93989e-06
9.88596e-06
9.79087e-06
9.75976e-06
9.71992e-06
9.67556e-06
9.61019e-06
9.63729e-06
9.57431e-06
9.5811e-06
9.54426e-06
9.56809e-06
9.53613e-06
9.54431e-06
9.55836e-06
9.57673e-06
9.62121e-06
9.66292e-06
9.7184e-06
9.77013e-06
9.82954e-06
9.91205e-06
9.98595e-06
1.00829e-05
1.01576e-05
1.02494e-05
1.03456e-05
1.04649e-05
1.05838e-05
1.0686e-05
1.08148e-05
1.09178e-05
1.10228e-05
1.1136e-05
1.12786e-05
1.14328e-05
1.1572e-05
1.17279e-05
1.18884e-05
1.20607e-05
1.22309e-05
1.24014e-05
1.25905e-05
1.27948e-05
1.29938e-05
1.31962e-05
1.34085e-05
1.37981e-05
1.41781e-05
1.42828e-05
1.43857e-05
1.46751e-05
1.49878e-05
1.53002e-05
1.56081e-05
1.5912e-05
1.6216e-05
1.65831e-05
1.69189e-05
1.72633e-05
1.7581e-05
1.79588e-05
1.82662e-05
1.85932e-05
1.88608e-05
1.91504e-05
1.92834e-05
1.94689e-05
1.94793e-05
1.94969e-05
1.95509e-05
1.93384e-05
1.94093e-05
1.93213e-05
1.9186e-05
1.90909e-05
1.89742e-05
1.88963e-05
1.87956e-05
1.86926e-05
1.85682e-05
1.84952e-05
1.84007e-05
1.83423e-05
1.82769e-05
1.8212e-05
1.80969e-05
1.80311e-05
1.79569e-05
1.78864e-05
1.78322e-05
1.77528e-05
1.76709e-05
1.75715e-05
1.74859e-05
1.73842e-05
1.72761e-05
1.71541e-05
1.70208e-05
1.68717e-05
1.67129e-05
1.65384e-05
1.63374e-05
1.61468e-05
1.59607e-05
1.57605e-05
1.55082e-05
1.52606e-05
1.49729e-05
1.46081e-05
1.41089e-05
1.34902e-05
1.27333e-05
1.20684e-05
1.16158e-05
1.00485e-05
5.23434e-06
7.32133e-09
2.72117e-06
5.35693e-06
1.59219e-06
2.64441e-13
1.39395e-07
8.36605e-07
1.73617e-07
4.39266e-08
4.53795e-07
5.75173e-07
5.3488e-07
9.35941e-07
1.60381e-06
1.91099e-07
8.68031e-11
1.11954e-05
1.5677e-05
3.43859e-06
6.30263e-06
1.72724e-05
2.47484e-05
2.74844e-05
2.89273e-05
2.92385e-05
2.97585e-05
2.9804e-05
2.98131e-05
2.9718e-05
2.96122e-05
2.94994e-05
2.94023e-05
2.92788e-05
2.91212e-05
2.89792e-05
2.88087e-05
2.86544e-05
2.84823e-05
2.83344e-05
2.81674e-05
2.80309e-05
2.78454e-05
2.76842e-05
2.74736e-05
2.73436e-05
2.71549e-05
2.70556e-05
2.69541e-05
2.68692e-05
2.6648e-05
2.6491e-05
2.6234e-05
2.60657e-05
2.58269e-05
2.56829e-05
2.54427e-05
2.5297e-05
2.51589e-05
2.52274e-05
2.51334e-05
2.51792e-05
2.50317e-05
2.50096e-05
2.48139e-05
2.47803e-05
2.4579e-05
2.45924e-05
2.43643e-05
2.44208e-05
2.41526e-05
2.42158e-05
2.39528e-05
2.39611e-05
2.36013e-05
2.37561e-05
2.31258e-05
2.271e-05
2.077e-05
1.79959e-05
1.68575e-05
1.70056e-05
1.72553e-05
1.73498e-05
1.74536e-05
1.74756e-05
1.7385e-05
1.71697e-05
1.69072e-05
1.66221e-05
1.63652e-05
1.60848e-05
1.58086e-05
1.55244e-05
1.52766e-05
1.49671e-05
1.44769e-05
1.40002e-05
1.38502e-05
1.3714e-05
1.33262e-05
1.2842e-05
1.25921e-05
1.24405e-05
1.21689e-05
1.17981e-05
1.14766e-05
1.11849e-05
1.08933e-05
1.05662e-05
1.02484e-05
9.87563e-06
9.49109e-06
8.95797e-06
8.37219e-06
7.75886e-06
7.11415e-06
6.50001e-06
5.79358e-06
4.69681e-06
3.40119e-06
1.91944e-06
5.89968e-07
6.07133e-08
4.83222e-09
8.08491e-09
1.09188e-08
5.95542e-09
3.78848e-09
2.82029e-09
2.78461e-09
3.67568e-09
5.59173e-09
7.98587e-09
1.12867e-08
1.52886e-08
1.98378e-08
2.03689e-08
1.61527e-08
1.60996e-08
8.86223e-09
7.16455e-09
5.98456e-09
4.90625e-09
4.1245e-09
2.56848e-09
2.46544e-09
2.38431e-09
2.28747e-09
2.25647e-09
2.35916e-09
2.42065e-09
3.12894e-09
3.66634e-09
3.55104e-09
3.47856e-09
4.17406e-09
9.00054e-09
1.25898e-08
2.88059e-08
7.44175e-08
3.1842e-07
1.90438e-06
1.91643e-06
7.80185e-06
1.05179e-05
1.54634e-05
1.57438e-05
1.45947e-05
1.52686e-05
1.22278e-05
1.15969e-05
9.64854e-06
4.88793e-06
1.483e-06
7.82596e-08
3.40781e-08
3.81313e-08
3.01161e-08
2.79512e-08
2.89208e-08
2.97293e-08
2.97622e-08
3.02043e-08
2.96108e-08
2.9927e-08
2.95789e-08
2.9424e-08
2.87384e-08
2.92993e-08
2.78543e-08
2.81749e-08
2.7619e-08
2.7841e-08
2.75016e-08
2.76138e-08
2.75861e-08
2.75178e-08
2.77665e-08
2.77187e-08
2.81061e-08
2.78768e-08
2.92873e-08
2.87361e-08
2.93236e-08
2.93951e-08
3.00328e-08
2.96307e-08
2.9956e-08
2.97064e-08
3.01648e-08
3.11393e-08
3.84367e-08
4.66122e-08
3.24419e-08
1.47796e-08
2.49645e-08
1.59963e-07
2.00261e-06
6.2255e-06
9.81491e-06
1.17291e-05
1.20401e-05
1.18356e-05
1.19358e-05
1.20375e-05
1.17458e-05
1.17554e-05
1.15706e-05
1.16512e-05
1.16939e-05
1.14964e-05
1.17759e-05
1.14221e-05
1.18124e-05
1.13842e-05
1.18072e-05
1.13749e-05
1.17808e-05
1.13948e-05
1.17681e-05
1.13817e-05
1.17517e-05
1.14384e-05
1.17186e-05
1.1505e-05
1.17101e-05
1.15706e-05
1.17629e-05
1.1599e-05
1.18294e-05
1.16793e-05
1.19409e-05
1.18742e-05
1.20912e-05
1.20962e-05
1.23218e-05
1.22809e-05
1.24916e-05
1.24574e-05
1.25939e-05
1.25321e-05
1.2629e-05
1.25561e-05
1.26278e-05
1.25686e-05
1.2725e-05
1.28522e-05
1.30179e-05
1.31601e-05
1.33995e-05
1.35221e-05
1.37715e-05
1.39913e-05
1.42411e-05
1.4487e-05
1.47849e-05
1.50217e-05
1.53346e-05
1.56314e-05
1.59269e-05
1.61661e-05
1.64638e-05
1.66708e-05
1.68789e-05
1.70568e-05
1.727e-05
1.74857e-05
1.76249e-05
1.77956e-05
1.79647e-05
1.81032e-05
1.82309e-05
1.83126e-05
1.84669e-05
1.85989e-05
1.86614e-05
1.87663e-05
1.88232e-05
1.89441e-05
1.90899e-05
1.91647e-05
1.92499e-05
1.92659e-05
1.9323e-05
1.93885e-05
1.94427e-05
1.94561e-05
1.9488e-05
1.95036e-05
1.94773e-05
1.94917e-05
1.94318e-05
1.93908e-05
1.93086e-05
1.92185e-05
1.90969e-05
1.8974e-05
1.87964e-05
1.86568e-05
1.84441e-05
1.82932e-05
1.80769e-05
1.79015e-05
1.77088e-05
1.74878e-05
1.73077e-05
1.71023e-05
1.69079e-05
1.67166e-05
1.65051e-05
1.63165e-05
1.61185e-05
1.59302e-05
1.57279e-05
1.55369e-05
1.53249e-05
1.51289e-05
1.49248e-05
1.47274e-05
1.45119e-05
1.42993e-05
1.40683e-05
1.38296e-05
1.35778e-05
1.33344e-05
1.30614e-05
1.27804e-05
1.24733e-05
1.21422e-05
1.1767e-05
1.13492e-05
1.08728e-05
1.03745e-05
9.84392e-06
9.22306e-06
8.42509e-06
7.45914e-06
6.54252e-06
6.00687e-06
5.72897e-06
4.98926e-06
3.49654e-06
1.96292e-06
1.24667e-06
1.49451e-06
1.81213e-06
1.38301e-06
2.48291e-07
4.39424e-10
2.24841e-10
7.91413e-09
3.43828e-08
4.57698e-08
8.96475e-08
8.28555e-09
6.49941e-09
9.24829e-08
7.33397e-09
4.71034e-09
1.75116e-09
1.32286e-08
9.86138e-08
8.34722e-09
1.67587e-09
7.30806e-07
2.19879e-07
5.43878e-08
2.86653e-13
1.77193e-06
5.62835e-06
6.63983e-06
5.87385e-06
6.52414e-06
9.30503e-06
1.18373e-05
1.32032e-05
1.42534e-05
1.55087e-05
1.67571e-05
1.77325e-05
1.85407e-05
1.92733e-05
1.99398e-05
2.0513e-05
2.09893e-05
2.13556e-05
2.16677e-05
2.18941e-05
2.21186e-05
2.23111e-05
2.25149e-05
2.26608e-05
2.28109e-05
2.29257e-05
2.30546e-05
2.31676e-05
2.33084e-05
2.34359e-05
2.35698e-05
2.36905e-05
2.37917e-05
2.39207e-05
2.39902e-05
2.41157e-05
2.41735e-05
2.42525e-05
2.43558e-05
2.43951e-05
2.45704e-05
2.46269e-05
2.47483e-05
2.49336e-05
2.49149e-05
2.51851e-05
2.51606e-05
2.53133e-05
2.54737e-05
2.54816e-05
2.55524e-05
2.5983e-05
2.57672e-05
2.56962e-05
2.61027e-05
2.63546e-05
2.71733e-05
2.57015e-05
2.69378e-05
2.73762e-05
2.71068e-05
2.66999e-05
2.63494e-05
2.60404e-05
2.5779e-05
2.55335e-05
2.52979e-05
2.51899e-05
2.51052e-05
2.50556e-05
2.49197e-05
2.47553e-05
2.46065e-05
2.4419e-05
2.40673e-05
2.36531e-05
2.33073e-05
2.30416e-05
2.26999e-05
2.23047e-05
2.20082e-05
2.18269e-05
2.16198e-05
2.12796e-05
2.09742e-05
2.07744e-05
2.06106e-05
2.04366e-05
2.01307e-05
1.9874e-05
1.9397e-05
1.8867e-05
1.76309e-05
1.58979e-05
1.40347e-05
1.2123e-05
1.03429e-05
8.92589e-06
7.59799e-06
6.68728e-06
5.87117e-06
4.88846e-06
4.22916e-06
3.84847e-06
3.47276e-06
2.39549e-06
1.46395e-06
8.78884e-07
5.81355e-07
5.16911e-07
6.27245e-07
7.63799e-07
8.62832e-07
1.03384e-06
1.20163e-06
1.36183e-06
1.15617e-06
8.15308e-07
6.96379e-07
5.1361e-07
4.31517e-07
4.85025e-07
4.20659e-07
3.91819e-07
1.81145e-07
2.39256e-07
2.70431e-07
2.54657e-07
2.23484e-07
1.58879e-07
1.27724e-07
2.70372e-07
3.44878e-07
4.06087e-07
5.09493e-07
6.95744e-07
8.01124e-07
8.12486e-07
1.18117e-06
2.19476e-06
4.63159e-06
8.61443e-06
1.30593e-05
1.38469e-05
1.5934e-05
2.0034e-05
2.30039e-05
1.99146e-05
2.5456e-05
1.76402e-05
1.05339e-05
9.6806e-06
5.32715e-06
1.65756e-06
7.29767e-08
1.96513e-09
8.35369e-09
2.49923e-08
3.36051e-08
3.21756e-08
3.0394e-08
3.00731e-08
3.01689e-08
3.00152e-08
3.0148e-08
2.9481e-08
2.94959e-08
2.87483e-08
2.93471e-08
2.7871e-08
2.82826e-08
2.77078e-08
2.78927e-08
2.76331e-08
2.77325e-08
2.77508e-08
2.76059e-08
2.79182e-08
2.77126e-08
2.82637e-08
2.78569e-08
2.94038e-08
2.87042e-08
2.93033e-08
2.95997e-08
3.00599e-08
2.97476e-08
3.0348e-08
2.98189e-08
2.96344e-08
2.86509e-08
2.51242e-08
2.09431e-08
2.71785e-08
2.73557e-08
1.38648e-08
2.03401e-07
1.49325e-06
4.46912e-06
8.33549e-06
1.08518e-05
1.27957e-05
1.33917e-05
1.353e-05
1.3867e-05
1.3555e-05
1.37415e-05
1.32668e-05
1.37668e-05
1.34241e-05
1.37064e-05
1.35645e-05
1.37176e-05
1.36772e-05
1.37517e-05
1.37625e-05
1.37896e-05
1.38659e-05
1.38687e-05
1.39423e-05
1.39444e-05
1.40942e-05
1.40687e-05
1.42371e-05
1.42333e-05
1.44186e-05
1.44217e-05
1.46307e-05
1.45899e-05
1.4881e-05
1.48937e-05
1.52608e-05
1.53862e-05
1.572e-05
1.59123e-05
1.61865e-05
1.62542e-05
1.65179e-05
1.65266e-05
1.66404e-05
1.65974e-05
1.66673e-05
1.65732e-05
1.66518e-05
1.66366e-05
1.69931e-05
1.72925e-05
1.75773e-05
1.79015e-05
1.83302e-05
1.8591e-05
1.90875e-05
1.95343e-05
2.00026e-05
2.05026e-05
2.10772e-05
2.15488e-05
2.21584e-05
2.27389e-05
2.32638e-05
2.36927e-05
2.42355e-05
2.4527e-05
2.48424e-05
2.50947e-05
2.5408e-05
2.5685e-05
2.57825e-05
2.59641e-05
2.61162e-05
2.61732e-05
2.62037e-05
2.61288e-05
2.62303e-05
2.6221e-05
2.60648e-05
2.60118e-05
2.58634e-05
2.58276e-05
2.5815e-05
2.56757e-05
2.55759e-05
2.52725e-05
2.50672e-05
2.48651e-05
2.46383e-05
2.43162e-05
2.40543e-05
2.37251e-05
2.33494e-05
2.30531e-05
2.26182e-05
2.22276e-05
2.18094e-05
2.13588e-05
2.09346e-05
2.04813e-05
2.00493e-05
1.96374e-05
1.92179e-05
1.88304e-05
1.84121e-05
1.80708e-05
1.76285e-05
1.72779e-05
1.68835e-05
1.65109e-05
1.61119e-05
1.57234e-05
1.53112e-05
1.49236e-05
1.45167e-05
1.40977e-05
1.36675e-05
1.32339e-05
1.27761e-05
1.23411e-05
1.18909e-05
1.14366e-05
1.0951e-05
1.04541e-05
9.90649e-06
9.32008e-06
8.68984e-06
8.05347e-06
7.36551e-06
6.6699e-06
5.91574e-06
5.15522e-06
4.4277e-06
3.7618e-06
3.03459e-06
2.33598e-06
1.88961e-06
1.64372e-06
1.10954e-06
3.32512e-07
1.21382e-07
1.88557e-07
1.08266e-07
2.47304e-08
2.74433e-08
5.85717e-08
5.61893e-08
4.04559e-08
2.24801e-08
4.15739e-08
8.39813e-08
1.07742e-07
8.29753e-08
4.55372e-08
5.05886e-08
4.57013e-08
3.79643e-08
7.0253e-08
1.22488e-07
5.78236e-08
1.27372e-07
1.83213e-08
1.75089e-07
6.40947e-08
2.91749e-08
6.17466e-08
3.91488e-08
1.9072e-08
4.76752e-09
6.30814e-08
4.02179e-08
2.45615e-09
2.35829e-07
6.08712e-07
1.31502e-08
3.0844e-09
8.69405e-07
1.62673e-06
1.3238e-06
1.72131e-06
2.76836e-06
3.73866e-06
4.25471e-06
4.93709e-06
5.94358e-06
7.15963e-06
8.35322e-06
9.62272e-06
1.08377e-05
1.20092e-05
1.30198e-05
1.4065e-05
1.50632e-05
1.60379e-05
1.68264e-05
1.75564e-05
1.81508e-05
1.87823e-05
1.93601e-05
1.99373e-05
2.05077e-05
2.10512e-05
2.162e-05
2.20796e-05
2.26795e-05
2.30558e-05
2.36321e-05
2.39787e-05
2.44564e-05
2.49159e-05
2.52109e-05
2.57737e-05
2.60897e-05
2.64398e-05
2.71019e-05
2.71114e-05
2.79708e-05
2.79932e-05
2.85728e-05
2.89705e-05
2.92923e-05
2.94828e-05
3.06729e-05
3.02681e-05
3.06129e-05
3.14156e-05
3.30321e-05
3.34038e-05
3.25659e-05
3.54276e-05
3.65455e-05
3.66694e-05
3.65887e-05
3.65447e-05
3.64355e-05
3.63509e-05
3.62156e-05
3.60362e-05
3.61036e-05
3.62526e-05
3.65123e-05
3.66109e-05
3.66055e-05
3.66376e-05
3.6603e-05
3.62227e-05
3.5653e-05
3.51293e-05
3.48185e-05
3.44176e-05
3.39262e-05
3.35324e-05
3.33926e-05
3.32707e-05
3.28962e-05
3.24932e-05
3.23353e-05
3.2265e-05
3.22731e-05
3.19234e-05
3.16924e-05
3.09924e-05
3.01207e-05
2.82236e-05
2.50896e-05
2.15398e-05
1.82728e-05
1.52444e-05
1.28414e-05
1.08768e-05
9.23324e-06
8.14939e-06
6.90397e-06
5.91529e-06
5.36898e-06
5.08823e-06
3.93976e-06
2.73903e-06
1.91487e-06
1.36364e-06
1.29296e-06
1.58133e-06
1.87824e-06
2.02387e-06
2.32676e-06
2.75188e-06
3.19402e-06
2.96211e-06
2.32369e-06
1.66443e-06
9.37991e-07
8.5258e-07
8.60814e-07
6.80817e-07
5.48338e-07
2.58821e-07
5.21282e-07
5.88863e-07
5.56795e-07
6.47259e-07
5.73183e-07
5.51175e-07
7.54791e-07
8.79499e-07
1.10807e-06
1.12323e-06
1.0544e-06
9.17466e-07
9.16602e-07
1.78669e-06
3.78393e-06
6.92097e-06
1.00441e-05
1.3255e-05
1.62719e-05
1.95215e-05
2.34358e-05
2.69332e-05
2.5206e-05
3.38089e-05
2.98841e-05
1.56214e-05
1.17177e-05
7.57015e-06
2.64217e-06
8.23374e-07
2.57034e-07
6.15869e-08
2.31562e-08
2.32575e-08
2.74044e-08
2.9294e-08
2.96297e-08
3.02471e-08
2.97209e-08
3.00166e-08
2.95725e-08
2.94427e-08
2.896e-08
2.94035e-08
2.79409e-08
2.82648e-08
2.76297e-08
2.77861e-08
2.75154e-08
2.75781e-08
2.75583e-08
2.74943e-08
2.7824e-08
2.76516e-08
2.81438e-08
2.78429e-08
2.93186e-08
2.86435e-08
2.92755e-08
2.95186e-08
2.9901e-08
2.94839e-08
2.99256e-08
2.97587e-08
2.98834e-08
2.89466e-08
2.73257e-08
2.19146e-08
2.56728e-08
6.35451e-08
8.80157e-08
4.8745e-08
4.99441e-07
2.78746e-06
6.40672e-06
8.91414e-06
1.01609e-05
1.16526e-05
1.25884e-05
1.31226e-05
1.32782e-05
1.35836e-05
1.36255e-05
1.37864e-05
1.38195e-05
1.39116e-05
1.39874e-05
1.40379e-05
1.41353e-05
1.41651e-05
1.42908e-05
1.42916e-05
1.44583e-05
1.44728e-05
1.46062e-05
1.46869e-05
1.48601e-05
1.49326e-05
1.51247e-05
1.52297e-05
1.54274e-05
1.55464e-05
1.57583e-05
1.58923e-05
1.61869e-05
1.64014e-05
1.67863e-05
1.70953e-05
1.74494e-05
1.7746e-05
1.79723e-05
1.81117e-05
1.83365e-05
1.83541e-05
1.84118e-05
1.8415e-05
1.84243e-05
1.83716e-05
1.84893e-05
1.86207e-05
1.91502e-05
1.95718e-05
1.99155e-05
2.03898e-05
2.09243e-05
2.13175e-05
2.1989e-05
2.25926e-05
2.31975e-05
2.38971e-05
2.46465e-05
2.52956e-05
2.60965e-05
2.68672e-05
2.74994e-05
2.80515e-05
2.8725e-05
2.90256e-05
2.93989e-05
2.97013e-05
3.00483e-05
3.03114e-05
3.03448e-05
3.0513e-05
3.05999e-05
3.05464e-05
3.04557e-05
3.02489e-05
3.02801e-05
3.00993e-05
2.9751e-05
2.95628e-05
2.92542e-05
2.90555e-05
2.88063e-05
2.84595e-05
2.82254e-05
2.76562e-05
2.72318e-05
2.67993e-05
2.63301e-05
2.57381e-05
2.52559e-05
2.4651e-05
2.40183e-05
2.34887e-05
2.27854e-05
2.21508e-05
2.14978e-05
2.07951e-05
2.01717e-05
1.94753e-05
1.88695e-05
1.82424e-05
1.7669e-05
1.70878e-05
1.65379e-05
1.60178e-05
1.54268e-05
1.49204e-05
1.43532e-05
1.384e-05
1.32467e-05
1.27138e-05
1.2099e-05
1.15495e-05
1.09444e-05
1.03301e-05
9.67181e-06
8.99485e-06
8.25317e-06
7.53031e-06
6.77284e-06
6.02192e-06
5.25352e-06
4.52052e-06
3.79994e-06
3.11693e-06
2.44763e-06
1.85306e-06
1.35248e-06
9.81117e-07
5.90738e-07
2.72284e-07
1.50586e-07
1.26806e-07
7.46351e-08
2.54037e-08
2.62857e-08
4.68295e-08
3.52175e-08
2.34608e-08
3.53703e-08
3.25291e-08
3.70012e-08
4.87755e-08
3.47773e-08
2.52068e-08
2.74134e-08
3.10197e-08
2.1953e-08
2.21272e-08
1.29967e-08
2.15882e-08
2.9073e-08
5.07867e-08
4.1433e-08
5.21856e-08
5.58589e-08
4.21397e-08
1.15406e-08
6.07259e-08
1.05704e-08
3.97453e-08
1.64487e-07
2.28344e-08
2.15239e-08
1.36606e-08
2.55228e-08
3.04262e-08
1.52711e-08
2.17018e-08
1.64802e-08
3.11442e-09
9.10245e-09
2.30683e-08
3.79293e-09
5.02748e-09
1.88431e-08
2.2151e-08
1.03988e-08
1.73905e-08
2.20542e-08
5.92414e-08
5.33963e-08
9.07922e-08
1.82283e-07
4.66996e-07
7.48481e-07
1.20619e-06
1.76358e-06
2.54415e-06
3.13084e-06
3.89497e-06
4.89773e-06
6.17488e-06
7.29279e-06
8.40572e-06
9.43848e-06
1.06002e-05
1.17989e-05
1.29603e-05
1.40911e-05
1.5113e-05
1.61646e-05
1.69781e-05
1.80282e-05
1.86869e-05
1.96768e-05
2.02836e-05
2.11098e-05
2.19165e-05
2.24765e-05
2.34059e-05
2.40105e-05
2.45518e-05
2.5644e-05
2.57068e-05
2.70118e-05
2.713e-05
2.80557e-05
2.85808e-05
2.92724e-05
2.95478e-05
3.11304e-05
3.08982e-05
3.15055e-05
3.28959e-05
3.49938e-05
3.55368e-05
3.56844e-05
3.86616e-05
4.02073e-05
4.04841e-05
4.07023e-05
4.1055e-05
4.1254e-05
4.14691e-05
4.15816e-05
4.15589e-05
4.18143e-05
4.21849e-05
4.2729e-05
4.30886e-05
4.32648e-05
4.34776e-05
4.36262e-05
4.33442e-05
4.28091e-05
4.21901e-05
4.17635e-05
4.13088e-05
4.08626e-05
4.04855e-05
4.0339e-05
4.02683e-05
3.99637e-05
3.95636e-05
3.94556e-05
3.94568e-05
3.96628e-05
3.94011e-05
3.9256e-05
3.8576e-05
3.75989e-05
3.56574e-05
3.22e-05
2.76561e-05
2.33879e-05
1.95227e-05
1.62474e-05
1.37633e-05
1.1479e-05
9.99881e-06
8.67635e-06
7.3901e-06
6.55683e-06
6.46274e-06
5.57893e-06
3.93558e-06
2.55524e-06
1.63593e-06
1.28199e-06
1.57022e-06
2.21719e-06
2.57467e-06
2.98803e-06
3.66658e-06
4.56943e-06
4.60938e-06
3.76389e-06
2.49743e-06
8.59221e-07
9.77656e-07
9.07409e-07
6.86262e-07
6.55572e-07
3.26693e-07
7.48177e-07
8.03451e-07
6.33874e-07
7.18994e-07
6.96599e-07
7.64684e-07
8.60251e-07
9.42993e-07
1.09962e-06
1.1336e-06
1.09375e-06
1.14042e-06
1.63504e-06
2.69527e-06
4.89628e-06
8.48723e-06
1.15132e-05
1.34351e-05
1.64802e-05
1.9657e-05
2.37138e-05
2.75769e-05
3.00446e-05
3.87574e-05
4.01368e-05
2.51434e-05
1.46673e-05
9.7035e-06
3.92148e-06
8.29736e-07
2.15426e-07
1.01271e-07
5.04845e-08
3.56026e-08
3.13667e-08
3.02642e-08
2.99021e-08
3.03908e-08
2.98389e-08
2.98893e-08
2.95126e-08
2.95761e-08
2.87912e-08
2.95279e-08
2.79111e-08
2.82818e-08
2.77321e-08
2.78995e-08
2.75239e-08
2.7688e-08
2.77246e-08
2.75925e-08
2.79029e-08
2.78157e-08
2.82478e-08
2.78123e-08
2.93815e-08
2.87408e-08
2.94167e-08
2.93702e-08
2.98796e-08
2.99423e-08
3.02367e-08
2.98448e-08
3.00385e-08
3.00057e-08
2.81344e-08
2.63304e-08
2.53152e-08
2.85613e-08
5.54241e-08
2.33026e-08
9.61314e-08
1.84731e-06
4.76651e-06
8.07177e-06
9.05306e-06
1.02671e-05
1.13242e-05
1.18185e-05
1.22679e-05
1.25658e-05
1.27674e-05
1.29567e-05
1.30722e-05
1.32276e-05
1.33095e-05
1.34511e-05
1.35331e-05
1.36621e-05
1.3772e-05
1.38817e-05
1.40155e-05
1.41661e-05
1.42754e-05
1.45007e-05
1.46411e-05
1.48648e-05
1.50265e-05
1.52669e-05
1.54395e-05
1.57054e-05
1.59058e-05
1.62248e-05
1.65106e-05
1.69057e-05
1.72655e-05
1.76856e-05
1.79931e-05
1.82976e-05
1.84512e-05
1.86038e-05
1.87578e-05
1.87645e-05
1.87953e-05
1.8844e-05
1.88135e-05
1.8867e-05
1.909e-05
1.94223e-05
2.00906e-05
2.05772e-05
2.09495e-05
2.15605e-05
2.21632e-05
2.27001e-05
2.34979e-05
2.42151e-05
2.4929e-05
2.58073e-05
2.66754e-05
2.74736e-05
2.8409e-05
2.93195e-05
2.99828e-05
3.06279e-05
3.13602e-05
3.16245e-05
3.20318e-05
3.23668e-05
3.26887e-05
3.28882e-05
3.2839e-05
3.29681e-05
3.29399e-05
3.27433e-05
3.25075e-05
3.21723e-05
3.21032e-05
3.17085e-05
3.11718e-05
3.08441e-05
3.03653e-05
2.99646e-05
2.94362e-05
2.89001e-05
2.85309e-05
2.76933e-05
2.70704e-05
2.64126e-05
2.57115e-05
2.48777e-05
2.42075e-05
2.33491e-05
2.25102e-05
2.17813e-05
2.08565e-05
2.00232e-05
1.9181e-05
1.82635e-05
1.7482e-05
1.65609e-05
1.58185e-05
1.49747e-05
1.42689e-05
1.34947e-05
1.2837e-05
1.21207e-05
1.14144e-05
1.07195e-05
9.99151e-06
9.29764e-06
8.47325e-06
7.73557e-06
6.84415e-06
6.0855e-06
5.24236e-06
4.47326e-06
3.67787e-06
2.98756e-06
2.27617e-06
1.76528e-06
1.24963e-06
8.89034e-07
4.90114e-07
3.14616e-07
1.51258e-07
1.11093e-07
5.28663e-08
5.4062e-08
3.73006e-08
4.93673e-08
3.28275e-08
3.44195e-08
2.76189e-08
3.53073e-08
3.10043e-08
4.72559e-08
3.83536e-08
4.51822e-08
3.4839e-08
4.31888e-08
3.65335e-08
4.08696e-08
3.67372e-08
4.45572e-08
4.03926e-08
5.39505e-08
4.12244e-08
6.51014e-08
6.38813e-08
9.1746e-08
7.13429e-08
7.5264e-08
4.50465e-08
4.17626e-08
4.24757e-08
3.44128e-08
3.89468e-08
5.67571e-08
1.02788e-07
5.34429e-08
7.25278e-08
6.91067e-08
3.42578e-08
3.24273e-09
6.5174e-08
2.88019e-08
3.02487e-08
2.4655e-08
3.00561e-08
3.18722e-08
3.33006e-08
2.37071e-08
2.86622e-08
3.06977e-08
2.25293e-08
2.25789e-08
1.83867e-08
2.28131e-08
1.74416e-08
2.36376e-08
1.84825e-08
2.31976e-08
1.25203e-08
1.81422e-08
7.45412e-09
2.01987e-08
7.12466e-09
2.81457e-08
1.41542e-08
5.25261e-08
3.80832e-08
8.6661e-08
8.63798e-08
4.04675e-07
7.17703e-07
1.0587e-06
1.45225e-06
2.1673e-06
2.99813e-06
3.82184e-06
4.92635e-06
6.0235e-06
7.40282e-06
8.51867e-06
1.01063e-05
1.11296e-05
1.26418e-05
1.35901e-05
1.48263e-05
1.60046e-05
1.6862e-05
1.8137e-05
1.90701e-05
1.98053e-05
2.13158e-05
2.15213e-05
2.31662e-05
2.34901e-05
2.47191e-05
2.53062e-05
2.6474e-05
2.68168e-05
2.8509e-05
2.87825e-05
2.96635e-05
3.17207e-05
3.37382e-05
3.5162e-05
3.58231e-05
3.8507e-05
4.042e-05
4.07758e-05
4.12729e-05
4.20863e-05
4.26791e-05
4.32845e-05
4.37497e-05
4.39695e-05
4.44416e-05
4.50514e-05
4.5897e-05
4.65741e-05
4.69812e-05
4.74015e-05
4.77821e-05
4.7688e-05
4.73014e-05
4.66806e-05
4.61452e-05
4.56223e-05
4.52517e-05
4.49684e-05
4.48359e-05
4.48142e-05
4.46327e-05
4.42945e-05
4.42558e-05
4.43275e-05
4.47453e-05
4.46772e-05
4.46759e-05
4.41685e-05
4.32446e-05
4.14878e-05
3.83421e-05
3.34873e-05
2.83979e-05
2.38667e-05
1.97304e-05
1.6698e-05
1.38534e-05
1.17834e-05
1.03212e-05
8.7893e-06
7.54851e-06
7.37782e-06
6.90711e-06
5.36989e-06
3.56159e-06
2.21432e-06
1.64307e-06
1.55778e-06
1.89781e-06
2.29092e-06
2.82157e-06
3.77522e-06
5.37142e-06
6.17634e-06
5.72568e-06
4.17936e-06
9.19268e-07
1.11784e-06
8.11042e-07
7.55189e-07
9.25421e-07
6.61587e-07
9.50537e-07
1.02197e-06
9.24589e-07
9.83226e-07
9.33607e-07
9.27861e-07
9.21466e-07
9.51555e-07
1.01557e-06
9.10856e-07
9.46357e-07
1.01902e-06
1.55591e-06
2.43934e-06
4.74469e-06
8.60124e-06
1.21935e-05
1.45646e-05
1.66855e-05
1.99424e-05
2.34607e-05
2.76939e-05
3.29349e-05
4.08134e-05
4.47931e-05
3.46629e-05
2.09887e-05
1.02012e-05
4.95523e-06
1.03054e-06
1.03037e-08
6.09457e-09
1.68108e-08
2.50999e-08
2.87807e-08
2.9844e-08
2.98795e-08
3.03287e-08
2.97669e-08
2.97481e-08
2.97249e-08
2.96302e-08
2.89316e-08
2.94474e-08
2.79801e-08
2.8279e-08
2.76597e-08
2.78644e-08
2.75326e-08
2.76357e-08
2.76005e-08
2.75229e-08
2.77748e-08
2.76024e-08
2.81438e-08
2.77646e-08
2.9337e-08
2.87007e-08
2.94276e-08
2.93343e-08
2.98181e-08
2.94496e-08
2.98737e-08
2.97583e-08
3.03184e-08
3.24407e-08
4.01102e-08
5.32082e-08
4.2218e-08
9.43833e-09
5.51468e-09
5.13654e-08
3.98714e-08
1.58815e-07
2.50081e-06
5.93843e-06
7.63542e-06
8.40838e-06
9.77465e-06
1.01371e-05
1.07595e-05
1.10272e-05
1.13488e-05
1.15512e-05
1.17401e-05
1.19283e-05
1.20649e-05
1.22411e-05
1.23642e-05
1.25402e-05
1.26692e-05
1.28434e-05
1.29979e-05
1.32149e-05
1.33639e-05
1.36491e-05
1.38074e-05
1.41019e-05
1.4265e-05
1.45756e-05
1.47628e-05
1.51133e-05
1.5346e-05
1.57556e-05
1.60583e-05
1.65009e-05
1.68251e-05
1.72242e-05
1.74674e-05
1.76796e-05
1.77967e-05
1.78984e-05
1.80188e-05
1.80138e-05
1.80818e-05
1.81664e-05
1.81622e-05
1.83835e-05
1.87671e-05
1.9281e-05
2.001e-05
2.0498e-05
2.08853e-05
2.16151e-05
2.22661e-05
2.29424e-05
2.38001e-05
2.45955e-05
2.54082e-05
2.64309e-05
2.73608e-05
2.82807e-05
2.92973e-05
3.02933e-05
3.09213e-05
3.16332e-05
3.23578e-05
3.25548e-05
3.29795e-05
3.33249e-05
3.35598e-05
3.36634e-05
3.35219e-05
3.35819e-05
3.33947e-05
3.30329e-05
3.26427e-05
3.21858e-05
3.19839e-05
3.13463e-05
3.06359e-05
3.01635e-05
2.9503e-05
2.8871e-05
2.80562e-05
2.73644e-05
2.68539e-05
2.57594e-05
2.49739e-05
2.41049e-05
2.31968e-05
2.21613e-05
2.13403e-05
2.02585e-05
1.92705e-05
1.83748e-05
1.72719e-05
1.62753e-05
1.52773e-05
1.41677e-05
1.32547e-05
1.21171e-05
1.1254e-05
1.01686e-05
9.31538e-06
8.2913e-06
7.48489e-06
6.50668e-06
5.66491e-06
4.78119e-06
3.99562e-06
3.27025e-06
2.52142e-06
1.97205e-06
1.30601e-06
9.41829e-07
4.94802e-07
3.27249e-07
1.36049e-07
1.24686e-07
3.85891e-08
7.0648e-08
2.186e-08
4.42735e-08
1.85426e-08
3.88452e-08
2.04393e-08
4.03899e-08
2.22003e-08
3.97755e-08
2.12428e-08
3.64278e-08
2.38321e-08
4.43658e-08
2.83802e-08
4.64054e-08
2.53297e-08
3.96452e-08
2.28733e-08
3.56818e-08
2.64349e-08
3.82981e-08
3.18023e-08
3.86778e-08
3.03391e-08
3.32167e-08
2.8178e-08
3.43237e-08
3.12483e-08
2.89477e-08
2.03921e-08
1.72566e-08
2.09152e-08
2.35084e-08
4.21781e-08
4.31154e-08
5.71035e-08
5.61136e-08
4.48619e-08
3.6768e-08
1.77099e-08
5.51847e-08
2.98031e-08
5.21428e-08
6.4016e-08
2.70792e-08
1.42807e-07
2.7392e-08
7.82609e-08
2.01144e-08
4.24841e-08
1.30302e-08
3.07129e-08
8.75761e-09
2.30602e-08
8.29107e-09
2.03017e-08
8.51565e-09
1.69329e-08
7.72652e-09
1.39293e-08
6.9301e-09
1.30347e-08
1.0124e-08
1.57643e-08
1.6474e-08
1.57129e-08
2.25341e-08
1.31054e-08
2.12987e-08
1.07585e-08
1.91763e-08
1.19074e-08
2.06559e-08
1.17531e-08
1.50262e-08
2.30782e-08
2.17664e-08
3.07788e-08
3.27022e-08
1.07963e-07
6.41733e-08
2.89941e-07
3.03356e-07
1.0828e-06
9.76589e-07
2.36438e-06
2.71619e-06
4.01399e-06
4.68323e-06
5.92627e-06
7.23933e-06
8.32022e-06
1.00124e-05
1.14002e-05
1.24736e-05
1.44358e-05
1.49748e-05
1.68493e-05
1.75339e-05
1.90107e-05
1.96354e-05
2.13492e-05
2.17517e-05
2.34081e-05
2.42572e-05
2.56475e-05
2.81167e-05
3.02158e-05
3.20467e-05
3.33536e-05
3.59146e-05
3.77738e-05
3.81766e-05
3.8888e-05
4.01606e-05
4.11886e-05
4.22377e-05
4.31333e-05
4.36699e-05
4.43843e-05
4.5244e-05
4.63967e-05
4.74368e-05
4.81234e-05
4.87728e-05
4.9421e-05
4.95904e-05
4.94463e-05
4.89251e-05
4.8319e-05
4.77232e-05
4.74275e-05
4.72903e-05
4.72049e-05
4.72346e-05
4.72143e-05
4.69919e-05
4.70443e-05
4.71855e-05
4.78023e-05
4.8009e-05
4.8211e-05
4.79821e-05
4.7267e-05
4.57918e-05
4.32759e-05
3.88336e-05
3.3342e-05
2.83019e-05
2.34151e-05
1.97396e-05
1.64384e-05
1.3683e-05
1.18834e-05
1.01839e-05
8.50767e-06
7.87962e-06
7.55186e-06
6.50414e-06
4.85666e-06
3.20681e-06
2.13003e-06
1.47908e-06
1.72341e-06
1.93493e-06
1.90473e-06
2.52555e-06
4.71506e-06
6.70421e-06
7.47655e-06
7.29343e-06
2.8748e-06
1.64015e-06
1.17231e-06
1.18472e-06
1.35198e-06
9.49176e-07
1.10303e-06
1.17362e-06
1.10745e-06
1.03332e-06
1.01355e-06
9.66078e-07
1.04375e-06
9.67441e-07
1.13799e-06
9.97676e-07
9.45191e-07
8.98584e-07
1.36597e-06
2.02941e-06
3.68971e-06
6.98125e-06
1.14057e-05
1.44361e-05
1.6878e-05
1.89405e-05
2.23504e-05
2.68572e-05
3.25964e-05
3.92763e-05
4.45079e-05
4.1745e-05
3.19851e-05
1.48267e-05
5.66062e-06
2.0891e-06
2.57399e-07
5.5346e-08
3.83246e-08
3.27929e-08
2.96843e-08
2.9499e-08
2.99451e-08
3.04211e-08
2.98017e-08
2.97684e-08
2.96685e-08
2.96066e-08
2.90195e-08
2.94752e-08
2.80672e-08
2.83137e-08
2.77487e-08
2.78357e-08
2.75451e-08
2.76932e-08
2.77609e-08
2.75694e-08
2.78974e-08
2.78029e-08
2.82459e-08
2.79306e-08
2.94233e-08
2.88768e-08
2.93436e-08
2.92981e-08
2.98122e-08
2.96844e-08
2.9847e-08
2.95573e-08
2.92549e-08
2.92693e-08
3.06726e-08
3.26788e-08
3.74556e-08
3.89017e-08
3.00442e-08
6.50766e-08
9.5677e-08
9.83224e-08
1.35995e-06
3.92092e-06
5.86322e-06
6.8334e-06
7.92781e-06
8.44815e-06
9.00592e-06
9.35546e-06
9.66529e-06
9.93874e-06
1.01399e-05
1.03792e-05
1.05416e-05
1.07565e-05
1.08926e-05
1.11094e-05
1.12444e-05
1.14706e-05
1.16243e-05
1.18837e-05
1.20592e-05
1.23483e-05
1.25195e-05
1.28074e-05
1.29995e-05
1.32963e-05
1.35407e-05
1.38748e-05
1.4164e-05
1.45465e-05
1.48546e-05
1.52162e-05
1.54893e-05
1.57743e-05
1.59494e-05
1.60473e-05
1.61714e-05
1.62176e-05
1.63642e-05
1.63816e-05
1.65356e-05
1.6659e-05
1.67536e-05
1.71774e-05
1.77053e-05
1.83121e-05
1.89961e-05
1.94459e-05
1.98515e-05
2.06847e-05
2.13622e-05
2.21487e-05
2.29913e-05
2.38516e-05
2.4758e-05
2.58707e-05
2.68069e-05
2.78287e-05
2.88717e-05
2.98925e-05
3.04331e-05
3.11881e-05
3.18453e-05
3.19572e-05
3.23857e-05
3.27124e-05
3.27995e-05
3.2793e-05
3.25543e-05
3.25086e-05
3.2128e-05
3.1591e-05
3.10497e-05
3.04774e-05
3.01071e-05
2.92132e-05
2.83515e-05
2.77297e-05
2.68803e-05
2.60068e-05
2.49275e-05
2.41193e-05
2.34604e-05
2.21388e-05
2.12369e-05
2.01781e-05
1.91002e-05
1.79097e-05
1.69748e-05
1.57042e-05
1.46194e-05
1.35722e-05
1.23186e-05
1.11601e-05
9.98749e-06
8.61524e-06
7.50946e-06
6.07903e-06
5.14652e-06
3.89597e-06
3.20496e-06
2.21557e-06
1.90994e-06
1.00671e-06
8.33053e-07
3.15019e-07
3.07512e-07
7.13731e-08
1.31294e-07
3.74514e-08
6.16036e-08
3.09024e-08
5.97186e-08
1.67065e-08
6.75129e-08
1.27924e-08
5.53448e-08
1.86671e-08
5.2186e-08
2.58057e-08
5.08102e-08
2.58894e-08
4.6167e-08
2.60096e-08
4.21564e-08
2.65602e-08
4.21835e-08
3.06854e-08
3.94537e-08
2.65153e-08
3.28079e-08
2.81256e-08
3.70423e-08
3.27905e-08
4.19976e-08
3.70093e-08
4.23998e-08
3.18167e-08
3.61499e-08
3.07522e-08
4.17134e-08
3.79693e-08
4.75867e-08
3.72754e-08
4.56479e-08
4.20829e-08
6.54042e-08
6.37684e-08
7.23164e-08
5.41511e-08
4.52857e-08
3.73807e-08
3.04489e-08
4.09194e-08
4.58838e-08
5.96112e-08
7.71049e-08
4.6538e-08
4.65698e-08
5.2473e-08
3.20387e-08
5.77313e-08
4.97117e-08
5.00061e-09
4.14213e-08
6.3449e-09
4.15582e-08
7.24348e-09
4.21737e-08
7.6708e-09
3.71035e-08
7.13451e-09
3.3911e-08
7.89132e-09
3.51221e-08
1.02337e-08
3.67363e-08
1.24823e-08
2.94804e-08
1.1694e-08
1.98733e-08
1.21398e-08
1.44863e-08
1.40662e-08
1.48358e-08
1.601e-08
2.07174e-08
1.0921e-08
3.26278e-08
4.44243e-09
6.88493e-08
1.53537e-09
9.33177e-08
5.02299e-10
7.89819e-08
1.0873e-09
6.46422e-08
6.64053e-10
9.57639e-08
2.15761e-10
1.40317e-07
2.53163e-09
1.61172e-07
9.21002e-08
1.3856e-06
1.34407e-07
3.83367e-07
1.45568e-06
1.75855e-06
2.80316e-06
3.52114e-06
3.90271e-06
5.67194e-06
6.24091e-06
8.16859e-06
9.33666e-06