/*--------------------------------*- C++ -*----------------------------------*\
| =========                 |                                                 |
| \\      /  F ield         | OpenFOAM: The Open Source CFD Toolbox           |
|  \\    /   O peration     | Version:  v2006                                 |
|   \\  /    A nd           | Website:  www.openfoam.com                      |
|    \\/     M anipulation  |                                                 |
\*---------------------------------------------------------------------------*/
FoamFile
{
    version     2.0;
    format      ascii;
    class       volScalarField;
    location    "75";
    object      nuTilda;
}
// * * * * * * * * * * * * * * * * * * * * * * * * * * * * * * * * * * * * * //

dimensions      [0 2 -1 0 0 0 0];


internalField   nonuniform List<scalar> 
93840
(
3.97975e-07
3.98102e-07
3.98121e-07
3.98274e-07
3.99003e-07
4.00307e-07
4.02364e-07
4.01358e-07
4.02375e-07
4.02906e-07
4.02768e-07
4.03527e-07
4.03357e-07
4.00833e-07
4.00007e-07
3.9973e-07
4.01621e-07
4.13024e-07
4.6502e-07
6.06705e-07
7.98956e-07
1.21881e-06
3.58374e-06
8.10478e-06
1.09238e-05
1.15164e-05
1.15293e-05
1.31395e-05
1.36266e-05
1.39839e-05
1.28996e-05
1.25332e-05
1.24776e-05
1.20879e-05
1.20437e-05
1.18879e-05
1.17067e-05
1.1686e-05
1.14284e-05
1.14718e-05
1.11972e-05
1.12798e-05
1.0992e-05
1.10772e-05
1.08058e-05
1.08617e-05
1.06274e-05
1.06569e-05
1.04698e-05
1.04604e-05
1.03033e-05
1.02972e-05
1.01343e-05
1.01136e-05
1.00328e-05
1.00369e-05
9.94851e-06
9.89463e-06
9.79971e-06
9.76862e-06
9.72886e-06
9.68457e-06
9.61931e-06
9.64636e-06
9.58351e-06
9.59027e-06
9.55351e-06
9.5773e-06
9.54542e-06
9.55358e-06
9.56763e-06
9.58596e-06
9.63038e-06
9.67202e-06
9.72743e-06
9.77909e-06
9.83841e-06
9.92079e-06
9.9946e-06
1.00914e-05
1.0166e-05
1.02577e-05
1.03538e-05
1.04729e-05
1.05917e-05
1.06938e-05
1.08224e-05
1.09254e-05
1.10302e-05
1.11433e-05
1.12858e-05
1.14399e-05
1.15789e-05
1.17348e-05
1.18951e-05
1.20673e-05
1.22374e-05
1.24078e-05
1.25967e-05
1.28009e-05
1.29998e-05
1.32021e-05
1.34143e-05
1.38037e-05
1.41834e-05
1.42882e-05
1.4391e-05
1.46803e-05
1.49928e-05
1.53052e-05
1.5613e-05
1.59168e-05
1.62207e-05
1.65876e-05
1.69233e-05
1.72676e-05
1.75852e-05
1.79629e-05
1.82701e-05
1.85971e-05
1.88646e-05
1.91541e-05
1.9287e-05
1.94724e-05
1.94828e-05
1.95004e-05
1.95543e-05
1.93418e-05
1.94127e-05
1.93246e-05
1.91893e-05
1.90941e-05
1.89774e-05
1.88995e-05
1.87988e-05
1.86958e-05
1.85714e-05
1.84984e-05
1.84038e-05
1.83454e-05
1.82799e-05
1.82151e-05
1.80999e-05
1.80341e-05
1.79599e-05
1.78893e-05
1.78352e-05
1.77558e-05
1.76738e-05
1.75745e-05
1.74888e-05
1.73871e-05
1.7279e-05
1.7157e-05
1.70237e-05
1.68746e-05
1.67158e-05
1.65413e-05
1.63404e-05
1.61498e-05
1.59637e-05
1.57635e-05
1.55113e-05
1.52637e-05
1.49761e-05
1.46114e-05
1.41123e-05
1.34939e-05
1.27374e-05
1.20729e-05
1.16205e-05
1.00547e-05
5.25652e-06
2.59652e-07
2.79485e-06
5.37683e-06
1.75748e-06
1.95045e-08
5.60178e-07
1.13369e-06
5.93668e-07
3.95089e-07
8.40166e-07
9.39734e-07
9.37476e-07
1.26291e-06
1.83346e-06
7.17541e-07
9.99375e-08
1.12049e-05
1.56827e-05
3.55946e-06
6.34556e-06
1.72789e-05
2.47519e-05
2.74873e-05
2.89301e-05
2.92413e-05
2.97613e-05
2.98069e-05
2.9816e-05
2.9721e-05
2.96152e-05
2.95025e-05
2.94054e-05
2.92821e-05
2.91245e-05
2.89826e-05
2.88122e-05
2.8658e-05
2.84859e-05
2.83381e-05
2.81712e-05
2.80348e-05
2.78494e-05
2.76882e-05
2.74777e-05
2.73478e-05
2.71592e-05
2.70599e-05
2.69586e-05
2.68737e-05
2.66527e-05
2.64957e-05
2.62388e-05
2.60706e-05
2.5832e-05
2.56881e-05
2.54479e-05
2.53022e-05
2.51643e-05
2.52328e-05
2.5139e-05
2.51848e-05
2.50374e-05
2.50153e-05
2.48198e-05
2.47862e-05
2.45851e-05
2.45984e-05
2.43706e-05
2.4427e-05
2.4159e-05
2.42222e-05
2.39593e-05
2.39675e-05
2.36081e-05
2.37626e-05
2.31326e-05
2.27167e-05
2.07773e-05
1.80042e-05
1.68661e-05
1.70138e-05
1.72632e-05
1.73574e-05
1.7461e-05
1.7483e-05
1.73923e-05
1.7177e-05
1.69145e-05
1.66294e-05
1.63727e-05
1.60923e-05
1.58161e-05
1.5532e-05
1.52843e-05
1.4975e-05
1.4485e-05
1.40087e-05
1.38587e-05
1.37226e-05
1.33351e-05
1.28513e-05
1.26016e-05
1.24501e-05
1.21787e-05
1.18084e-05
1.14873e-05
1.11959e-05
1.09048e-05
1.05782e-05
1.02609e-05
9.88893e-06
9.50526e-06
8.97367e-06
8.38987e-06
7.77921e-06
7.13792e-06
6.52815e-06
5.82825e-06
4.74845e-06
3.49338e-06
2.14351e-06
1.09568e-06
5.25393e-07
2.71746e-07
2.96273e-07
3.27579e-07
2.78485e-07
2.4755e-07
2.28478e-07
2.26121e-07
2.44602e-07
2.71214e-07
2.98872e-07
3.27481e-07
3.54924e-07
3.80139e-07
3.82808e-07
3.60447e-07
3.60147e-07
3.07488e-07
2.91335e-07
2.78339e-07
2.6366e-07
2.53955e-07
2.26278e-07
2.25058e-07
2.22004e-07
2.19099e-07
2.17681e-07
2.19514e-07
2.20351e-07
2.34261e-07
2.42495e-07
2.38449e-07
2.41546e-07
2.60862e-07
3.17412e-07
3.4705e-07
4.30273e-07
5.55938e-07
8.68428e-07
2.12739e-06
2.13729e-06
7.81992e-06
1.05276e-05
1.54679e-05
1.57478e-05
1.4599e-05
1.52725e-05
1.22339e-05
1.16035e-05
9.65811e-06
4.92278e-06
1.71711e-06
5.17339e-07
4.11682e-07
4.23636e-07
3.99238e-07
3.91657e-07
3.96986e-07
4.00231e-07
4.01917e-07
4.02689e-07
4.02748e-07
4.02734e-07
4.03576e-07
4.02177e-07
4.01179e-07
4.02284e-07
4.00283e-07
3.98764e-07
3.97798e-07
3.97893e-07
3.97755e-07
3.97756e-07
3.97674e-07
3.97823e-07
3.9759e-07
3.98139e-07
3.98573e-07
4.00374e-07
4.02235e-07
4.01162e-07
4.01828e-07
4.0292e-07
4.03149e-07
4.02797e-07
4.01786e-07
4.01617e-07
4.01788e-07
4.04721e-07
4.26212e-07
4.48959e-07
4.05789e-07
3.30752e-07
3.79062e-07
6.39599e-07
2.1649e-06
6.24768e-06
9.82426e-06
1.17359e-05
1.20466e-05
1.18421e-05
1.19423e-05
1.20439e-05
1.17526e-05
1.17622e-05
1.15775e-05
1.1658e-05
1.17006e-05
1.15034e-05
1.17825e-05
1.14291e-05
1.18189e-05
1.13912e-05
1.18136e-05
1.13818e-05
1.17872e-05
1.14016e-05
1.17745e-05
1.13884e-05
1.17581e-05
1.1445e-05
1.17249e-05
1.15115e-05
1.17164e-05
1.1577e-05
1.17692e-05
1.16054e-05
1.18356e-05
1.16857e-05
1.19469e-05
1.18803e-05
1.2097e-05
1.2102e-05
1.23275e-05
1.22865e-05
1.2497e-05
1.24629e-05
1.25993e-05
1.25375e-05
1.26343e-05
1.25615e-05
1.26332e-05
1.2574e-05
1.27303e-05
1.28574e-05
1.30229e-05
1.31651e-05
1.34043e-05
1.35268e-05
1.37761e-05
1.39957e-05
1.42454e-05
1.44912e-05
1.47889e-05
1.50256e-05
1.53383e-05
1.5635e-05
1.59304e-05
1.61695e-05
1.64671e-05
1.6674e-05
1.68821e-05
1.70599e-05
1.72731e-05
1.74887e-05
1.76279e-05
1.77985e-05
1.79676e-05
1.81061e-05
1.82338e-05
1.83155e-05
1.84698e-05
1.86018e-05
1.86642e-05
1.87692e-05
1.8826e-05
1.89469e-05
1.90928e-05
1.91676e-05
1.92528e-05
1.92688e-05
1.93259e-05
1.93914e-05
1.94457e-05
1.94592e-05
1.94911e-05
1.95067e-05
1.94805e-05
1.94949e-05
1.9435e-05
1.9394e-05
1.93119e-05
1.92219e-05
1.91003e-05
1.89774e-05
1.87999e-05
1.86603e-05
1.84477e-05
1.82969e-05
1.80806e-05
1.79051e-05
1.77126e-05
1.74916e-05
1.73114e-05
1.7106e-05
1.69117e-05
1.67204e-05
1.6509e-05
1.63204e-05
1.61224e-05
1.59342e-05
1.57319e-05
1.5541e-05
1.5329e-05
1.51331e-05
1.4929e-05
1.47317e-05
1.45162e-05
1.43037e-05
1.40728e-05
1.38342e-05
1.35825e-05
1.33392e-05
1.30664e-05
1.27855e-05
1.24786e-05
1.21477e-05
1.17728e-05
1.13554e-05
1.08795e-05
1.03817e-05
9.85179e-06
9.2319e-06
8.43556e-06
7.47231e-06
6.55942e-06
6.02659e-06
5.75038e-06
5.01693e-06
3.55054e-06
2.10599e-06
1.49657e-06
1.69698e-06
1.96717e-06
1.59913e-06
7.00844e-07
1.28373e-07
1.07987e-07
2.63456e-07
3.84177e-07
4.12484e-07
4.95174e-07
2.60583e-07
2.44193e-07
4.92567e-07
2.51385e-07
2.26134e-07
1.80611e-07
3.08052e-07
5.48395e-07
2.92594e-07
2.00578e-07
1.18138e-06
7.72761e-07
5.29111e-07
2.50822e-08
2.07357e-06
5.6796e-06
6.67777e-06
5.92458e-06
6.56606e-06
9.32666e-06
1.1851e-05
1.32143e-05
1.42631e-05
1.5517e-05
1.67644e-05
1.7739e-05
1.85468e-05
1.92791e-05
1.99452e-05
2.05182e-05
2.09943e-05
2.13605e-05
2.16726e-05
2.1899e-05
2.21234e-05
2.2316e-05
2.25196e-05
2.26655e-05
2.28157e-05
2.29305e-05
2.30593e-05
2.31725e-05
2.33133e-05
2.34408e-05
2.35746e-05
2.36954e-05
2.37965e-05
2.39255e-05
2.3995e-05
2.41204e-05
2.41782e-05
2.42573e-05
2.43606e-05
2.44e-05
2.45753e-05
2.46318e-05
2.47532e-05
2.49385e-05
2.49198e-05
2.519e-05
2.51654e-05
2.53182e-05
2.54785e-05
2.54865e-05
2.55572e-05
2.59878e-05
2.5772e-05
2.57011e-05
2.61074e-05
2.63591e-05
2.71773e-05
2.57057e-05
2.69412e-05
2.73792e-05
2.71098e-05
2.6703e-05
2.63525e-05
2.60436e-05
2.57821e-05
2.55367e-05
2.53011e-05
2.5193e-05
2.51083e-05
2.50586e-05
2.49227e-05
2.47583e-05
2.46094e-05
2.44219e-05
2.40703e-05
2.36561e-05
2.33103e-05
2.30446e-05
2.2703e-05
2.23078e-05
2.20113e-05
2.18301e-05
2.16229e-05
2.12828e-05
2.09775e-05
2.07776e-05
2.06139e-05
2.04399e-05
2.0134e-05
1.98774e-05
1.94005e-05
1.88706e-05
1.7635e-05
1.59029e-05
1.40411e-05
1.21314e-05
1.03543e-05
8.94111e-06
7.61866e-06
6.71386e-06
5.90476e-06
4.93696e-06
4.29064e-06
3.92425e-06
3.55783e-06
2.55187e-06
1.75672e-06
1.30287e-06
1.08348e-06
1.01976e-06
1.10423e-06
1.20953e-06
1.28608e-06
1.4192e-06
1.54926e-06
1.6765e-06
1.51831e-06
1.26241e-06
1.1728e-06
1.03191e-06
9.6431e-07
1.01104e-06
9.57388e-07
9.35424e-07
7.23159e-07
7.8671e-07
8.15754e-07
7.97906e-07
7.6427e-07
6.8644e-07
6.41322e-07
8.02867e-07
8.66142e-07
9.21795e-07
1.02554e-06
1.18004e-06
1.25758e-06
1.2681e-06
1.54476e-06
2.37924e-06
4.68319e-06
8.62955e-06
1.30661e-05
1.38527e-05
1.59384e-05
2.00369e-05
2.3006e-05
1.99172e-05
2.54576e-05
1.76434e-05
1.05421e-05
9.69012e-06
5.35746e-06
1.86619e-06
5.07057e-07
1.98135e-07
2.85266e-07
3.80093e-07
4.11078e-07
4.08347e-07
4.02679e-07
4.02712e-07
4.02533e-07
4.0422e-07
4.03511e-07
4.03264e-07
4.0238e-07
4.01245e-07
4.02184e-07
4.0046e-07
3.99034e-07
3.98045e-07
3.98156e-07
3.98214e-07
3.98041e-07
3.98098e-07
3.98099e-07
3.98185e-07
3.98002e-07
3.989e-07
4.00312e-07
4.02503e-07
4.01072e-07
4.01721e-07
4.03654e-07
4.03236e-07
4.03218e-07
4.03232e-07
4.01846e-07
3.99985e-07
3.95805e-07
3.80596e-07
3.63004e-07
3.87263e-07
3.88471e-07
3.25154e-07
6.90462e-07
1.72547e-06
4.5104e-06
8.34831e-06
1.08595e-05
1.28014e-05
1.33967e-05
1.3535e-05
1.38718e-05
1.356e-05
1.37464e-05
1.32721e-05
1.37716e-05
1.34292e-05
1.37113e-05
1.35694e-05
1.37224e-05
1.3682e-05
1.37565e-05
1.37672e-05
1.37943e-05
1.38706e-05
1.38733e-05
1.39468e-05
1.39489e-05
1.40986e-05
1.40731e-05
1.42414e-05
1.42376e-05
1.44228e-05
1.44259e-05
1.46347e-05
1.45939e-05
1.48849e-05
1.48976e-05
1.52645e-05
1.53898e-05
1.57235e-05
1.59157e-05
1.61898e-05
1.62575e-05
1.6521e-05
1.65297e-05
1.66435e-05
1.66005e-05
1.66703e-05
1.65763e-05
1.66549e-05
1.66397e-05
1.69961e-05
1.72954e-05
1.75801e-05
1.79042e-05
1.83328e-05
1.85935e-05
1.90899e-05
1.95366e-05
2.00048e-05
2.05047e-05
2.10791e-05
2.15507e-05
2.21602e-05
2.27406e-05
2.32654e-05
2.36943e-05
2.4237e-05
2.45285e-05
2.48438e-05
2.50961e-05
2.54094e-05
2.56864e-05
2.57839e-05
2.59654e-05
2.61176e-05
2.61746e-05
2.6205e-05
2.61302e-05
2.62317e-05
2.62225e-05
2.60663e-05
2.60133e-05
2.58649e-05
2.58291e-05
2.58165e-05
2.56772e-05
2.55775e-05
2.52742e-05
2.50688e-05
2.48668e-05
2.46401e-05
2.43181e-05
2.40562e-05
2.37271e-05
2.33515e-05
2.30552e-05
2.26205e-05
2.22299e-05
2.18118e-05
2.13614e-05
2.09372e-05
2.04841e-05
2.00522e-05
1.96404e-05
1.9221e-05
1.88336e-05
1.84155e-05
1.80741e-05
1.7632e-05
1.72815e-05
1.68872e-05
1.65147e-05
1.61159e-05
1.57275e-05
1.53155e-05
1.4928e-05
1.45213e-05
1.41025e-05
1.36726e-05
1.32392e-05
1.27818e-05
1.23471e-05
1.18972e-05
1.14434e-05
1.09583e-05
1.0462e-05
9.91524e-06
9.32985e-06
8.70096e-06
8.06624e-06
7.3806e-06
6.68806e-06
5.93851e-06
5.1847e-06
4.46691e-06
3.81469e-06
3.11235e-06
2.45638e-06
2.05423e-06
1.84039e-06
1.40502e-06
8.02425e-07
5.77337e-07
6.58718e-07
5.54793e-07
3.68294e-07
3.77339e-07
4.61196e-07
4.54439e-07
4.13776e-07
3.52521e-07
4.13286e-07
5.00151e-07
5.35014e-07
4.93524e-07
4.15325e-07
4.2498e-07
4.1073e-07
3.87753e-07
4.56588e-07
5.35212e-07
4.28173e-07
5.4162e-07
3.19004e-07
6.13766e-07
4.66185e-07
3.91561e-07
4.93958e-07
4.49947e-07
3.77546e-07
2.72829e-07
5.48059e-07
4.95478e-07
2.47519e-07
8.55401e-07
1.19928e-06
3.92864e-07
2.72393e-07
1.42239e-06
2.00025e-06
1.76646e-06
2.07562e-06
2.96503e-06
3.85922e-06
4.35131e-06
5.01065e-06
5.99539e-06
7.19579e-06
8.38009e-06
9.64315e-06
1.0854e-05
1.20226e-05
1.30313e-05
1.4075e-05
1.5072e-05
1.60458e-05
1.68337e-05
1.75631e-05
1.81572e-05
1.87883e-05
1.93659e-05
1.99428e-05
2.0513e-05
2.10563e-05
2.16248e-05
2.20843e-05
2.2684e-05
2.30601e-05
2.36363e-05
2.39828e-05
2.44604e-05
2.49198e-05
2.52148e-05
2.57775e-05
2.60934e-05
2.64435e-05
2.71054e-05
2.7115e-05
2.79742e-05
2.79966e-05
2.85761e-05
2.89737e-05
2.92955e-05
2.94859e-05
3.06759e-05
3.0271e-05
3.06159e-05
3.14184e-05
3.30347e-05
3.34061e-05
3.25683e-05
3.54293e-05
3.65471e-05
3.6671e-05
3.65902e-05
3.65463e-05
3.6437e-05
3.63524e-05
3.6217e-05
3.60377e-05
3.6105e-05
3.6254e-05
3.65137e-05
3.66123e-05
3.66068e-05
3.66388e-05
3.66043e-05
3.62239e-05
3.56543e-05
3.51305e-05
3.48198e-05
3.44189e-05
3.39275e-05
3.35337e-05
3.33939e-05
3.3272e-05
3.28975e-05
3.24945e-05
3.23366e-05
3.22663e-05
3.22744e-05
3.19247e-05
3.16938e-05
3.09938e-05
3.01221e-05
2.82252e-05
2.50916e-05
2.15425e-05
1.82765e-05
1.52496e-05
1.28488e-05
1.0887e-05
9.24742e-06
8.16718e-06
6.92899e-06
5.94826e-06
5.40944e-06
5.13224e-06
4.0097e-06
2.87084e-06
2.13481e-06
1.68252e-06
1.6245e-06
1.85069e-06
2.09506e-06
2.21914e-06
2.488e-06
2.87633e-06
3.29164e-06
3.07405e-06
2.4901e-06
1.9237e-06
1.35714e-06
1.29386e-06
1.30111e-06
1.16448e-06
1.06202e-06
8.07272e-07
1.03874e-06
1.0899e-06
1.06393e-06
1.13311e-06
1.07487e-06
1.05666e-06
1.21175e-06
1.30591e-06
1.48167e-06
1.49911e-06
1.44902e-06
1.34511e-06
1.345e-06
2.02873e-06
3.85828e-06
6.94433e-06
1.00552e-05
1.32615e-05
1.62762e-05
1.95244e-05
2.34379e-05
2.69347e-05
2.52077e-05
3.38099e-05
2.98852e-05
1.56252e-05
1.17242e-05
7.58561e-06
2.74745e-06
1.1988e-06
7.42425e-07
4.82419e-07
3.7255e-07
3.73108e-07
3.91308e-07
3.98699e-07
4.01461e-07
4.02847e-07
4.03166e-07
4.0307e-07
4.0354e-07
4.02238e-07
4.01981e-07
4.02706e-07
4.00546e-07
3.99005e-07
3.97836e-07
3.97683e-07
3.97821e-07
3.97613e-07
3.97568e-07
3.97721e-07
3.97776e-07
3.97822e-07
3.98651e-07
4.0025e-07
4.02364e-07
4.0082e-07
4.01742e-07
4.03326e-07
4.02686e-07
4.02251e-07
4.01725e-07
4.01755e-07
4.00786e-07
3.97019e-07
3.89313e-07
3.67249e-07
3.815e-07
4.87513e-07
5.33882e-07
4.54147e-07
9.55883e-07
2.88397e-06
6.42813e-06
8.92553e-06
1.01697e-05
1.16593e-05
1.25942e-05
1.31279e-05
1.32834e-05
1.35886e-05
1.36304e-05
1.37912e-05
1.38243e-05
1.39163e-05
1.3992e-05
1.40425e-05
1.41398e-05
1.41696e-05
1.42952e-05
1.4296e-05
1.44626e-05
1.4477e-05
1.46103e-05
1.4691e-05
1.48641e-05
1.49365e-05
1.51285e-05
1.52334e-05
1.54311e-05
1.555e-05
1.57618e-05
1.58957e-05
1.61902e-05
1.64046e-05
1.67893e-05
1.70982e-05
1.74522e-05
1.77487e-05
1.79749e-05
1.81143e-05
1.8339e-05
1.83567e-05
1.84143e-05
1.84175e-05
1.84268e-05
1.83741e-05
1.84918e-05
1.86231e-05
1.91525e-05
1.9574e-05
1.99177e-05
2.03919e-05
2.09262e-05
2.13194e-05
2.19907e-05
2.25943e-05
2.31991e-05
2.38987e-05
2.4648e-05
2.5297e-05
2.60978e-05
2.68684e-05
2.75006e-05
2.80526e-05
2.87261e-05
2.90266e-05
2.93999e-05
2.97023e-05
3.00493e-05
3.03123e-05
3.03458e-05
3.0514e-05
3.06009e-05
3.05474e-05
3.04567e-05
3.02499e-05
3.02811e-05
3.01004e-05
2.9752e-05
2.95639e-05
2.92553e-05
2.90567e-05
2.88075e-05
2.84607e-05
2.82266e-05
2.76576e-05
2.72332e-05
2.68008e-05
2.63316e-05
2.57397e-05
2.52575e-05
2.46528e-05
2.40201e-05
2.34907e-05
2.27875e-05
2.2153e-05
2.15002e-05
2.07977e-05
2.01744e-05
1.94782e-05
1.88726e-05
1.82457e-05
1.76725e-05
1.70915e-05
1.65418e-05
1.60219e-05
1.54312e-05
1.49251e-05
1.43581e-05
1.38452e-05
1.32524e-05
1.27198e-05
1.21056e-05
1.15566e-05
1.09522e-05
1.03388e-05
9.68158e-06
9.006e-06
8.2663e-06
7.54588e-06
6.79185e-06
6.04563e-06
5.28421e-06
4.56117e-06
3.85605e-06
3.19696e-06
2.56796e-06
2.03444e-06
1.61477e-06
1.3236e-06
1.02752e-06
7.6167e-07
6.28325e-07
5.95241e-07
5.09659e-07
3.79657e-07
3.82117e-07
4.44566e-07
4.10765e-07
3.67809e-07
4.09055e-07
3.98673e-07
4.11514e-07
4.4187e-07
4.01941e-07
3.67711e-07
3.74618e-07
3.8562e-07
3.50456e-07
3.4956e-07
3.0294e-07
3.4409e-07
3.70266e-07
4.2811e-07
4.02761e-07
4.26473e-07
4.31789e-07
3.97961e-07
2.81868e-07
4.35475e-07
2.74689e-07
3.90512e-07
6.00104e-07
3.50699e-07
3.56793e-07
3.25739e-07
3.95447e-07
4.19937e-07
3.62823e-07
4.06752e-07
3.86591e-07
2.57989e-07
3.47731e-07
4.43455e-07
2.84548e-07
3.05073e-07
4.31886e-07
4.50864e-07
3.73215e-07
4.24751e-07
4.51862e-07
5.87146e-07
5.71555e-07
6.60056e-07
8.0699e-07
1.09901e-06
1.32597e-06
1.66998e-06
2.10435e-06
2.76143e-06
3.2896e-06
4.00451e-06
4.97024e-06
6.2215e-06
7.32684e-06
8.43156e-06
9.45932e-06
1.06168e-05
1.18127e-05
1.29719e-05
1.41009e-05
1.51217e-05
1.61723e-05
1.69851e-05
1.80345e-05
1.86927e-05
1.96821e-05
2.02886e-05
2.11145e-05
2.19209e-05
2.24808e-05
2.34099e-05
2.40144e-05
2.45556e-05
2.56475e-05
2.57103e-05
2.7015e-05
2.71332e-05
2.80588e-05
2.85838e-05
2.92753e-05
2.95506e-05
3.1133e-05
3.09008e-05
3.15081e-05
3.28982e-05
3.49958e-05
3.55387e-05
3.56862e-05
3.86629e-05
4.02085e-05
4.04852e-05
4.07034e-05
4.10561e-05
4.12551e-05
4.14702e-05
4.15827e-05
4.15599e-05
4.18153e-05
4.21859e-05
4.273e-05
4.30896e-05
4.32657e-05
4.34784e-05
4.36271e-05
4.3345e-05
4.281e-05
4.2191e-05
4.17644e-05
4.13097e-05
4.08634e-05
4.04863e-05
4.03399e-05
4.02692e-05
3.99646e-05
3.95645e-05
3.94565e-05
3.94577e-05
3.96637e-05
3.94019e-05
3.92568e-05
3.85769e-05
3.75998e-05
3.56584e-05
3.22012e-05
2.76578e-05
2.33901e-05
1.95259e-05
1.6252e-05
1.37696e-05
1.14881e-05
1.00107e-05
8.69222e-06
7.41166e-06
6.58415e-06
6.49086e-06
5.61608e-06
4.00705e-06
2.70483e-06
1.90637e-06
1.62257e-06
1.84904e-06
2.39626e-06
2.71528e-06
3.09701e-06
3.74211e-06
4.61982e-06
4.65922e-06
3.83727e-06
2.64633e-06
1.29659e-06
1.38616e-06
1.33494e-06
1.16888e-06
1.14604e-06
8.74337e-07
1.21554e-06
1.25616e-06
1.12774e-06
1.19187e-06
1.17532e-06
1.22612e-06
1.29795e-06
1.36038e-06
1.4802e-06
1.50783e-06
1.47814e-06
1.51374e-06
1.90413e-06
2.8302e-06
4.94223e-06
8.50287e-06
1.15217e-05
1.34414e-05
1.64843e-05
1.966e-05
2.37158e-05
2.75783e-05
3.00458e-05
3.87581e-05
4.01375e-05
2.51449e-05
1.46715e-05
9.71306e-06
3.974e-06
1.20339e-06
7.01374e-07
5.55838e-07
4.58648e-07
4.17451e-07
4.05623e-07
4.02223e-07
4.02145e-07
4.03363e-07
4.03564e-07
4.02632e-07
4.03381e-07
4.02666e-07
4.0137e-07
4.02835e-07
4.00599e-07
3.99037e-07
3.98113e-07
3.98159e-07
3.97808e-07
3.97876e-07
3.97986e-07
3.98021e-07
3.98055e-07
3.98317e-07
3.98811e-07
4.00062e-07
4.02374e-07
4.01208e-07
4.02123e-07
4.02781e-07
4.02606e-07
4.03912e-07
4.02853e-07
4.01959e-07
4.01472e-07
4.00578e-07
3.92152e-07
3.85504e-07
3.80165e-07
3.92879e-07
4.69242e-07
3.73247e-07
5.4921e-07
2.02693e-06
4.80381e-06
8.08543e-06
9.06406e-06
1.02757e-05
1.13312e-05
1.18249e-05
1.22739e-05
1.25716e-05
1.2773e-05
1.2962e-05
1.30775e-05
1.32328e-05
1.33146e-05
1.34561e-05
1.3538e-05
1.36669e-05
1.37767e-05
1.38863e-05
1.402e-05
1.41705e-05
1.42797e-05
1.45048e-05
1.46452e-05
1.48688e-05
1.50303e-05
1.52707e-05
1.54431e-05
1.57089e-05
1.59092e-05
1.6228e-05
1.65137e-05
1.69087e-05
1.72683e-05
1.76883e-05
1.79957e-05
1.83001e-05
1.84537e-05
1.86063e-05
1.87602e-05
1.87669e-05
1.87977e-05
1.88464e-05
1.88159e-05
1.88694e-05
1.90924e-05
1.94245e-05
2.00928e-05
2.05792e-05
2.09514e-05
2.15623e-05
2.21649e-05
2.27018e-05
2.34994e-05
2.42165e-05
2.49303e-05
2.58086e-05
2.66766e-05
2.74748e-05
2.84101e-05
2.93205e-05
2.99838e-05
3.06288e-05
3.1361e-05
3.16254e-05
3.20327e-05
3.23676e-05
3.26895e-05
3.2889e-05
3.28398e-05
3.29689e-05
3.29408e-05
3.27441e-05
3.25083e-05
3.21732e-05
3.21041e-05
3.17094e-05
3.11728e-05
3.08451e-05
3.03663e-05
2.99656e-05
2.94373e-05
2.89012e-05
2.85321e-05
2.76946e-05
2.70717e-05
2.64141e-05
2.57131e-05
2.48793e-05
2.42093e-05
2.3351e-05
2.25122e-05
2.17835e-05
2.08589e-05
2.00258e-05
1.91839e-05
1.82667e-05
1.74855e-05
1.65648e-05
1.58228e-05
1.49794e-05
1.42741e-05
1.35004e-05
1.28433e-05
1.21276e-05
1.14223e-05
1.07282e-05
1.00014e-05
9.30888e-06
8.48664e-06
7.75135e-06
6.86407e-06
6.11029e-06
5.2752e-06
4.51733e-06
3.74108e-06
3.0787e-06
2.41847e-06
1.96797e-06
1.54403e-06
1.26579e-06
9.6106e-07
8.11709e-07
6.3855e-07
5.81364e-07
4.7096e-07
4.72708e-07
4.26587e-07
4.59066e-07
4.10533e-07
4.14769e-07
3.90397e-07
4.15614e-07
4.00547e-07
4.47307e-07
4.21666e-07
4.39482e-07
4.0882e-07
4.31881e-07
4.11818e-07
4.23032e-07
4.09914e-07
4.30284e-07
4.17651e-07
4.50266e-07
4.17048e-07
4.70834e-07
4.66513e-07
5.14662e-07
4.7695e-07
4.82103e-07
4.16006e-07
4.05531e-07
4.05049e-07
3.80945e-07
3.91256e-07
4.31525e-07
5.09587e-07
4.20829e-07
4.6098e-07
4.57233e-07
3.83224e-07
2.1296e-07
4.81398e-07
3.961e-07
4.13638e-07
3.9828e-07
4.32485e-07
4.49035e-07
4.64127e-07
4.33885e-07
4.67115e-07
4.78691e-07
4.47275e-07
4.48494e-07
4.30613e-07
4.53729e-07
4.25646e-07
4.60261e-07
4.32698e-07
4.59019e-07
3.92778e-07
4.31226e-07
3.43396e-07
4.4284e-07
3.3921e-07
4.82123e-07
4.03821e-07
5.68427e-07
5.22001e-07
6.51107e-07
6.51023e-07
1.04335e-06
1.30248e-06
1.55902e-06
1.85886e-06
2.43647e-06
3.16993e-06
3.93591e-06
4.99864e-06
6.07275e-06
7.43602e-06
8.54382e-06
1.01243e-05
1.11445e-05
1.26535e-05
1.36002e-05
1.4835e-05
1.60121e-05
1.68689e-05
1.81431e-05
1.90757e-05
1.98105e-05
2.13204e-05
2.15258e-05
2.31702e-05
2.3494e-05
2.47227e-05
2.53096e-05
2.64771e-05
2.68199e-05
2.85118e-05
2.87852e-05
2.9666e-05
3.17229e-05
3.37402e-05
3.51638e-05
3.58247e-05
3.85083e-05
4.0421e-05
4.07769e-05
4.12739e-05
4.20873e-05
4.26801e-05
4.32854e-05
4.37506e-05
4.39704e-05
4.44425e-05
4.50522e-05
4.58978e-05
4.65749e-05
4.6982e-05
4.74022e-05
4.77828e-05
4.76886e-05
4.73021e-05
4.66812e-05
4.61459e-05
4.5623e-05
4.52524e-05
4.49691e-05
4.48366e-05
4.48149e-05
4.46334e-05
4.42952e-05
4.42565e-05
4.43282e-05
4.4746e-05
4.46778e-05
4.46765e-05
4.41691e-05
4.32453e-05
4.14885e-05
3.83429e-05
3.34884e-05
2.83994e-05
2.38688e-05
1.97335e-05
1.67023e-05
1.38596e-05
1.1792e-05
1.03323e-05
8.80463e-06
7.56918e-06
7.39954e-06
6.93185e-06
5.41014e-06
3.64828e-06
2.40191e-06
1.91571e-06
1.84444e-06
2.12486e-06
2.4646e-06
2.9456e-06
3.84855e-06
5.40882e-06
6.20477e-06
5.75874e-06
4.23994e-06
1.34076e-06
1.49033e-06
1.26073e-06
1.21931e-06
1.34842e-06
1.14911e-06
1.36779e-06
1.42124e-06
1.34849e-06
1.39218e-06
1.35571e-06
1.35094e-06
1.34661e-06
1.36897e-06
1.41803e-06
1.33991e-06
1.36646e-06
1.42105e-06
1.8393e-06
2.5975e-06
4.79352e-06
8.61642e-06
1.2201e-05
1.45699e-05
1.66896e-05
1.99453e-05
2.34627e-05
2.76953e-05
3.2936e-05
4.08141e-05
4.47936e-05
3.46637e-05
2.09908e-05
1.02099e-05
4.9893e-06
1.35823e-06
3.01505e-07
2.63001e-07
3.42723e-07
3.80701e-07
3.96365e-07
4.00663e-07
4.02372e-07
4.03032e-07
4.0337e-07
4.02166e-07
4.04048e-07
4.02906e-07
4.01875e-07
4.02778e-07
4.00762e-07
3.9911e-07
3.97983e-07
3.9797e-07
3.97895e-07
3.97842e-07
3.9773e-07
3.97832e-07
3.97596e-07
3.97558e-07
3.98715e-07
3.99922e-07
4.02435e-07
4.01026e-07
4.02278e-07
4.02625e-07
4.02438e-07
4.02161e-07
4.01485e-07
4.01758e-07
4.02334e-07
4.09156e-07
4.31191e-07
4.65234e-07
4.35608e-07
2.94683e-07
2.5677e-07
4.6056e-07
4.31148e-07
6.40278e-07
2.61883e-06
5.96308e-06
7.65048e-06
8.4209e-06
9.78399e-06
1.01458e-05
1.07672e-05
1.10346e-05
1.13558e-05
1.15579e-05
1.17466e-05
1.19346e-05
1.20711e-05
1.2247e-05
1.237e-05
1.25459e-05
1.26747e-05
1.28487e-05
1.30031e-05
1.32199e-05
1.33687e-05
1.36538e-05
1.3812e-05
1.41063e-05
1.42692e-05
1.45796e-05
1.47667e-05
1.5117e-05
1.53496e-05
1.57591e-05
1.60616e-05
1.65041e-05
1.68281e-05
1.7227e-05
1.74701e-05
1.76823e-05
1.77994e-05
1.7901e-05
1.80214e-05
1.80164e-05
1.80843e-05
1.8169e-05
1.81647e-05
1.8386e-05
1.87695e-05
1.92833e-05
2.00121e-05
2.05e-05
2.08872e-05
2.16169e-05
2.22678e-05
2.29441e-05
2.38016e-05
2.45969e-05
2.54095e-05
2.64321e-05
2.7362e-05
2.82818e-05
2.92983e-05
3.02942e-05
3.09222e-05
3.16341e-05
3.23587e-05
3.25556e-05
3.29803e-05
3.33256e-05
3.35606e-05
3.36642e-05
3.35227e-05
3.35827e-05
3.33955e-05
3.30337e-05
3.26436e-05
3.21867e-05
3.19848e-05
3.13472e-05
3.06369e-05
3.01645e-05
2.9504e-05
2.88721e-05
2.80574e-05
2.73657e-05
2.68552e-05
2.57608e-05
2.49754e-05
2.41065e-05
2.31986e-05
2.21633e-05
2.13424e-05
2.02609e-05
1.92732e-05
1.83778e-05
1.72752e-05
1.62791e-05
1.52817e-05
1.41728e-05
1.32606e-05
1.21241e-05
1.12622e-05
1.01786e-05
9.32723e-06
8.3061e-06
7.50301e-06
6.53004e-06
5.69569e-06
4.82308e-06
4.0541e-06
3.35351e-06
2.65047e-06
2.15665e-06
1.602e-06
1.31961e-06
9.77886e-07
8.35091e-07
6.28051e-07
6.10721e-07
4.39618e-07
5.17154e-07
3.76638e-07
4.53151e-07
3.59292e-07
4.35722e-07
3.67093e-07
4.38644e-07
3.7367e-07
4.35114e-07
3.67745e-07
4.23138e-07
3.77293e-07
4.44004e-07
3.93159e-07
4.47332e-07
3.79689e-07
4.26564e-07
3.67737e-07
4.12418e-07
3.7996e-07
4.18104e-07
3.96786e-07
4.16807e-07
3.89494e-07
3.97653e-07
3.79204e-07
3.98213e-07
3.86913e-07
3.77753e-07
3.42927e-07
3.27061e-07
3.41998e-07
3.51289e-07
4.08232e-07
4.08949e-07
4.38977e-07
4.35189e-07
4.06953e-07
3.84034e-07
3.1582e-07
4.25407e-07
3.61179e-07
4.21278e-07
4.53843e-07
3.65138e-07
5.96971e-07
3.86417e-07
5.27365e-07
3.72835e-07
4.67188e-07
3.5054e-07
4.48096e-07
3.30878e-07
4.34493e-07
3.37228e-07
4.31613e-07
3.46354e-07
4.17582e-07
3.41948e-07
3.99e-07
3.33921e-07
3.93589e-07
3.6849e-07
4.13519e-07
4.1794e-07
4.13306e-07
4.53193e-07
3.94152e-07
4.46176e-07
3.74517e-07
4.34249e-07
3.84249e-07
4.42454e-07
3.83006e-07
4.07411e-07
4.55336e-07
4.48103e-07
4.90718e-07
4.9845e-07
6.91137e-07
5.98164e-07
9.30845e-07
9.43917e-07
1.57546e-06
1.49371e-06
2.60189e-06
2.9095e-06
4.11519e-06
4.75915e-06
5.97542e-06
7.27297e-06
8.34623e-06
1.00306e-05
1.14145e-05
1.24856e-05
1.44449e-05
1.49833e-05
1.68561e-05
1.75402e-05
1.90162e-05
1.96405e-05
2.13536e-05
2.1756e-05
2.34118e-05
2.42607e-05
2.56506e-05
2.81194e-05
3.02181e-05
3.20486e-05
3.33553e-05
3.59159e-05
3.77749e-05
3.81777e-05
3.8889e-05
4.01617e-05
4.11895e-05
4.22386e-05
4.31342e-05
4.36707e-05
4.43851e-05
4.52448e-05
4.63974e-05
4.74375e-05
4.81241e-05
4.87734e-05
4.94216e-05
4.9591e-05
4.94469e-05
4.89257e-05
4.83196e-05
4.77238e-05
4.74281e-05
4.7291e-05
4.72055e-05
4.72352e-05
4.72149e-05
4.69925e-05
4.70449e-05
4.7186e-05
4.78029e-05
4.80095e-05
4.82116e-05
4.79827e-05
4.72675e-05
4.57924e-05
4.32766e-05
3.88344e-05
3.33431e-05
2.83034e-05
2.34173e-05
1.97427e-05
1.64428e-05
1.36893e-05
1.18918e-05
1.01953e-05
8.52391e-06
7.8986e-06
7.57259e-06
6.53187e-06
4.90555e-06
3.31136e-06
2.32944e-06
1.78498e-06
1.98259e-06
2.15874e-06
2.13217e-06
2.67647e-06
4.76452e-06
6.72893e-06
7.49643e-06
7.31424e-06
2.99432e-06
1.90388e-06
1.53327e-06
1.54176e-06
1.6722e-06
1.36338e-06
1.48103e-06
1.53564e-06
1.48614e-06
1.42968e-06
1.41593e-06
1.3802e-06
1.4393e-06
1.38169e-06
1.51103e-06
1.40503e-06
1.36531e-06
1.33063e-06
1.68757e-06
2.23606e-06
3.76791e-06
7.00423e-06
1.14143e-05
1.44415e-05
1.68819e-05
1.89437e-05
2.23527e-05
2.68588e-05
3.25974e-05
3.9277e-05
4.45085e-05
4.17456e-05
3.1986e-05
1.48309e-05
5.68737e-06
2.23799e-06
7.44962e-07
4.68843e-07
4.25762e-07
4.08418e-07
3.99557e-07
3.99521e-07
4.02541e-07
4.03437e-07
4.03435e-07
4.02181e-07
4.03925e-07
4.02811e-07
4.0222e-07
4.02638e-07
4.01212e-07
3.99139e-07
3.98197e-07
3.97909e-07
3.97888e-07
3.979e-07
3.98117e-07
3.9793e-07
3.98125e-07
3.98198e-07
3.98769e-07
4.00446e-07
4.02501e-07
4.01679e-07
4.0182e-07
4.02506e-07
4.02388e-07
4.03005e-07
4.01431e-07
4.00877e-07
3.98736e-07
3.98031e-07
4.01294e-07
4.08039e-07
4.21888e-07
4.26586e-07
3.97935e-07
4.91305e-07
5.47503e-07
5.53592e-07
1.62231e-06
3.97505e-06
5.88834e-06
6.85199e-06
7.94174e-06
8.46045e-06
9.01681e-06
9.36552e-06
9.67479e-06
9.94763e-06
1.01485e-05
1.03874e-05
1.05496e-05
1.07641e-05
1.08999e-05
1.11164e-05
1.12513e-05
1.14771e-05
1.16307e-05
1.18898e-05
1.20651e-05
1.23539e-05
1.25249e-05
1.28126e-05
1.30046e-05
1.33011e-05
1.35453e-05
1.38792e-05
1.41682e-05
1.45505e-05
1.48584e-05
1.52198e-05
1.54928e-05
1.57777e-05
1.59527e-05
1.60505e-05
1.61746e-05
1.62208e-05
1.63673e-05
1.63847e-05
1.65386e-05
1.6662e-05
1.67566e-05
1.71802e-05
1.77079e-05
1.83145e-05
1.89984e-05
1.94481e-05
1.98537e-05
2.06866e-05
2.1364e-05
2.21504e-05
2.29928e-05
2.38531e-05
2.47594e-05
2.5872e-05
2.68081e-05
2.78298e-05
2.88727e-05
2.98935e-05
3.0434e-05
3.1189e-05
3.18462e-05
3.19581e-05
3.23865e-05
3.27132e-05
3.28002e-05
3.27938e-05
3.25551e-05
3.25094e-05
3.21289e-05
3.15919e-05
3.10506e-05
3.04783e-05
3.0108e-05
2.92142e-05
2.83526e-05
2.77308e-05
2.68816e-05
2.60081e-05
2.49289e-05
2.41208e-05
2.3462e-05
2.21407e-05
2.12389e-05
2.01804e-05
1.91028e-05
1.79127e-05
1.69781e-05
1.57081e-05
1.46239e-05
1.35775e-05
1.23251e-05
1.11681e-05
9.99747e-06
8.62873e-06
7.52727e-06
6.10623e-06
5.18418e-06
3.96015e-06
3.29591e-06
2.38105e-06
2.11383e-06
1.38301e-06
1.2534e-06
8.37654e-07
8.29313e-07
5.29558e-07
6.29499e-07
4.42198e-07
5.05085e-07
4.18306e-07
4.98542e-07
3.54434e-07
5.13277e-07
3.29395e-07
4.84118e-07
3.61829e-07
4.74308e-07
3.92153e-07
4.69044e-07
3.90845e-07
4.55192e-07
3.89871e-07
4.42418e-07
3.90373e-07
4.40483e-07
4.03776e-07
4.3083e-07
3.86765e-07
4.08191e-07
3.90931e-07
4.19483e-07
4.0503e-07
4.31554e-07
4.16081e-07
4.30409e-07
3.97595e-07
4.10058e-07
3.91736e-07
4.2354e-07
4.11811e-07
4.36094e-07
4.06998e-07
4.27985e-07
4.17388e-07
4.68674e-07
4.64032e-07
4.78092e-07
4.39674e-07
4.16079e-07
3.93604e-07
3.70228e-07
3.99216e-07
4.09918e-07
4.38562e-07
4.70617e-07
4.06631e-07
4.08941e-07
4.24274e-07
3.76888e-07
4.49684e-07
4.43432e-07
2.49739e-07
4.44093e-07
2.7807e-07
4.64697e-07
3.02607e-07
4.86485e-07
3.20737e-07
4.92532e-07
3.25569e-07
4.918e-07
3.40338e-07
5.04399e-07
3.67631e-07
5.13998e-07
3.89763e-07
4.86084e-07
3.8427e-07
4.40095e-07
3.88403e-07
4.05628e-07
4.03123e-07
4.07979e-07
4.159e-07
4.4474e-07
3.7675e-07
5.00764e-07
3.00014e-07
6.10531e-07
2.29597e-07
6.63532e-07
1.73206e-07
6.33327e-07
2.10096e-07
6.00942e-07
1.861e-07
6.69609e-07
1.4025e-07
7.45698e-07
2.5967e-07
7.74821e-07
6.58569e-07
1.80086e-06
7.31186e-07
1.01792e-06
1.8558e-06
2.09658e-06
2.99012e-06
3.65117e-06
4.0114e-06
5.72659e-06
6.28639e-06
8.19567e-06
9.35754e-06
1.10281e-05
1.18045e-05
1.40949e-05
1.46886e-05