/*--------------------------------*- C++ -*----------------------------------*\
| =========                 |                                                 |
| \\      /  F ield         | OpenFOAM: The Open Source CFD Toolbox           |
|  \\    /   O peration     | Version:  v2006                                 |
|   \\  /    A nd           | Website:  www.openfoam.com                      |
|    \\/     M anipulation  |                                                 |
\*---------------------------------------------------------------------------*/
FoamFile
{
    version     2.0;
    format      ascii;
    class       volScalarField;
    location    "75";
    object      p;
}
// * * * * * * * * * * * * * * * * * * * * * * * * * * * * * * * * * * * * * //

dimensions      [1 -1 -2 0 0 0 0];


internalField   nonuniform List<scalar> 
93840
(
0.994089
0.990389
0.997833
0.994347
1.00339
0.981765
1.00619
0.996659
1.0086
1.00214
1.01591
1.00881
1.02232
1.0204
1.03015
1.03391
1.04273
1.04581
1.05416
1.05258
1.05426
1.04815
1.05022
1.05046
1.03658
1.01916
1.02051
1.04491
1.02251
1.03475
1.03167
1.03812
1.02373
1.03249
1.03859
1.04179
1.04563
1.05237
1.05238
1.05833
1.06074
1.06156
1.06321
1.06621
1.06915
1.0708
1.07308
1.07552
1.07623
1.07758
1.08045
1.08184
1.08361
1.08576
1.08694
1.08794
1.08808
1.09
1.09167
1.09369
1.09386
1.09495
1.09605
1.09597
1.09647
1.09719
1.09752
1.09728
1.09713
1.09741
1.09689
1.09683
1.09635
1.09607
1.09505
1.09443
1.09337
1.09273
1.09134
1.08998
1.08903
1.08729
1.08617
1.08413
1.082
1.07998
1.07749
1.07537
1.07295
1.07028
1.06713
1.06358
1.05993
1.056
1.0519
1.04758
1.04313
1.03847
1.03365
1.02834
1.02297
1.01754
1.012
1.00273
0.992856
0.988956
0.98557
0.977679
0.969047
0.960421
0.952045
0.943885
0.936245
0.927178
0.919361
0.911787
0.905298
0.897185
0.891002
0.884209
0.879527
0.873226
0.87154
0.867913
0.871617
0.8759
0.875103
0.88808
0.884389
0.895675
0.90075
0.909757
0.91494
0.922989
0.928438
0.93486
0.941666
0.948537
0.954635
0.960909
0.964666
0.97164
0.977556
0.983778
0.988692
0.995104
0.999679
1.00549
1.0104
1.01749
1.02374
1.03013
1.03611
1.04309
1.04955
1.05647
1.06346
1.07105
1.07919
1.0878
1.09443
1.10247
1.10949
1.11971
1.12772
1.13862
1.14903
1.16086
1.17085
1.18294
1.19625
1.21202
1.227
1.24292
1.2603
1.27976
1.30064
1.32682
1.35311
1.37813
1.39688
1.41888
1.4006
1.34442
1.23779
1.11462
0.981236
0.888307
0.837804
0.820109
0.74674
0.692533
0.661482
0.622394
0.591004
0.591209
0.577447
0.577376
0.567665
0.567233
0.570039
0.572248
0.57221
0.571876
0.572264
0.574284
0.576878
0.577897
0.579975
0.581171
0.581962
0.582296
0.584127
0.58469
0.585626
0.587243
0.588713
0.588784
0.589728
0.589349
0.585379
0.586482
0.589357
0.590427
0.59197
0.59351
0.595844
0.598564
0.602263
0.603995
0.602593
0.5979
0.596394
0.593522
0.592668
0.593413
0.5937
0.594184
0.594061
0.594269
0.594383
0.594383
0.594588
0.595272
0.596565
0.598705
0.599832
0.60077
0.611327
0.630587
0.671819
0.737428
0.768501
0.771382
0.769841
0.772034
0.772557
0.775194
0.780036
0.788237
0.797107
0.80645
0.814445
0.823265
0.831502
0.840101
0.847603
0.85626
0.867774
0.878984
0.883981
0.888949
0.898219
0.908863
0.915404
0.920254
0.926768
0.934656
0.941857
0.948525
0.955078
0.961628
0.968045
0.974349
0.980385
0.986285
0.991751
0.996907
1.00171
1.00626
1.01044
1.01407
1.01769
1.02029
1.02315
1.02464
1.02682
1.02503
1.0225
1.02474
1.02478
1.02628
1.02543
1.02592
1.0251
1.02578
1.02534
1.02541
1.02492
1.02605
1.02496
1.02577
1.02474
1.02615
1.02462
1.02583
1.02485
1.02587
1.02466
1.0257
1.02455
1.02549
1.0245
1.02513
1.02535
1.02565
1.02519
1.02576
1.02584
1.02461
1.0252
1.02865
1.03066
1.02022
1.01832
1.02403
1.02672
1.03087
1.02083
1.02787
1.05033
1.02552
1.01958
1.03719
1.0514
1.04891
1.04778
1.05399
1.05312
1.05445
1.04633
1.04218
1.03369
1.03033
1.02015
1.02261
1.00895
1.01572
1.00223
1.00846
0.996664
1.00586
0.981677
1.00325
0.993894
0.998291
0.990317
0.993108
0.993103
0.990351
0.998204
0.99393
1.00325
0.981628
1.00585
0.996665
1.00844
1.00216
1.01573
1.00899
1.02268
1.02018
1.03037
1.03376
1.04232
1.04588
1.05437
1.05298
1.05397
1.04806
1.04865
1.05028
1.03624
1.02251
1.02829
1.04022
1.02914
1.03033
1.02875
1.0271
1.03402
1.03352
1.04042
1.04192
1.04643
1.05146
1.05175
1.05691
1.06013
1.06078
1.06312
1.06629
1.06869
1.07018
1.07224
1.07475
1.07599
1.07732
1.08017
1.08154
1.083
1.08501
1.08628
1.08756
1.08807
1.08983
1.09154
1.0932
1.09331
1.09482
1.09547
1.09575
1.09614
1.09682
1.09739
1.09701
1.09703
1.09706
1.09662
1.09664
1.09623
1.09591
1.09481
1.09429
1.09316
1.0926
1.09119
1.08985
1.08891
1.08713
1.08603
1.08401
1.08189
1.07988
1.0774
1.07528
1.07284
1.07016
1.06704
1.0635
1.05986
1.05593
1.05184
1.04754
1.04309
1.03843
1.03361
1.02832
1.02297
1.01751
1.01192
1.00282
0.993161
0.989118
0.985511
0.977692
0.969184
0.960602
0.952263
0.944115
0.936482
0.927484
0.919752
0.912199
0.905728
0.897704
0.891593
0.884862
0.880179
0.87402
0.872357
0.868841
0.872453
0.876672
0.87587
0.888645
0.885075
0.896374
0.901302
0.910336
0.915396
0.923577
0.929046
0.935439
0.942136
0.948989
0.955136
0.961319
0.965285
0.97212
0.978098
0.984217
0.98934
0.995694
1.00037
1.00623
1.01115
1.01822
1.02452
1.03093
1.03709
1.04409
1.05059
1.05762
1.06462
1.0725
1.0804
1.08915
1.09596
1.10444
1.11167
1.12211
1.13011
1.14129
1.15202
1.16399
1.17482
1.18709
1.20111
1.21724
1.23327
1.24894
1.26613
1.28617
1.30703
1.32841
1.35053
1.37121
1.38492
1.40228
1.38393
1.34965
1.27867
1.18646
1.07566
0.975968
0.905619
0.866659
0.790668
0.732747
0.701261
0.656883
0.618004
0.61117
0.592279
0.589534
0.579714
0.575526
0.576273
0.578065
0.57652
0.576343
0.576663
0.577676
0.580135
0.580863
0.582609
0.583598
0.584091
0.584169
0.585908
0.586356
0.587335
0.588732
0.590191
0.590005
0.590736
0.591178
0.586288
0.58721
0.590045
0.591068
0.592649
0.594112
0.596363
0.599079
0.602773
0.604495
0.603192
0.598647
0.597178
0.594105
0.593187
0.593868
0.594004
0.594523
0.594337
0.594717
0.59488
0.594868
0.59485
0.595772
0.596924
0.599083
0.600276
0.601148
0.611518
0.630916
0.672262
0.738026
0.768677
0.771528
0.769999
0.772256
0.772809
0.775478
0.780307
0.788498
0.79737
0.806685
0.814676
0.823486
0.831704
0.840292
0.847865
0.856559
0.867876
0.878917
0.884085
0.889265
0.898417
0.908832
0.915409
0.920426
0.92697
0.934771
0.941935
0.948619
0.95518
0.961727
0.968139
0.974436
0.980456
0.986334
0.991797
0.99695
1.00175
1.00629
1.01045
1.01404
1.01763
1.02027
1.02303
1.02463
1.02674
1.02494
1.02265
1.02532
1.02506
1.02661
1.02538
1.02592
1.02514
1.02583
1.02526
1.02561
1.02497
1.0258
1.02504
1.02577
1.025
1.02584
1.02493
1.02586
1.02484
1.02564
1.02493
1.0257
1.02478
1.02541
1.02484
1.0255
1.02509
1.02553
1.02528
1.02586
1.02559
1.02284
1.02337
1.02692
1.02828
1.02316
1.02967
1.01549
1.02947
1.02811
1.01702
1.02485
1.0453
1.01603
1.01386
1.03546
1.05251
1.05015
1.04793
1.05426
1.05273
1.05414
1.04626
1.04275
1.03401
1.03014
1.02039
1.02233
1.00878
1.01591
1.00207
1.00856
0.996528
1.00619
0.981747
1.00338
0.994231
0.99793
0.990317
0.994111
0.994122
0.990457
0.997831
0.994365
1.00339
0.981759
1.00616
0.996559
1.00858
1.00215
1.01591
1.00886
1.02232
1.02058
1.03029
1.03406
1.04298
1.04584
1.05418
1.05261
1.05398
1.04858
1.04979
1.04953
1.03707
1.02451
1.02703
1.03955
1.03177
1.02906
1.0403
1.03755
1.0323
1.04115
1.0396
1.0449
1.04656
1.05136
1.0538
1.05632
1.06056
1.06094
1.06332
1.06591
1.0687
1.07016
1.07247
1.07459
1.07542
1.0774
1.07998
1.08145
1.08267
1.0849
1.08628
1.08745
1.0878
1.08998
1.09094
1.09309
1.09334
1.09465
1.09524
1.09556
1.09609
1.0967
1.09717
1.09688
1.09669
1.09705
1.09655
1.09654
1.09595
1.09572
1.09474
1.09429
1.09295
1.09253
1.0911
1.08976
1.08879
1.08706
1.08592
1.08393
1.08182
1.07979
1.07733
1.07521
1.07276
1.07008
1.06697
1.06344
1.0598
1.05588
1.05179
1.0475
1.04307
1.03841
1.0336
1.02831
1.02296
1.0175
1.01189
1.00284
0.993289
0.98921
0.985524
0.97772
0.969266
0.960705
0.952381
0.944254
0.936616
0.927675
0.919985
0.912455
0.906004
0.898014
0.891963
0.885227
0.880597
0.874422
0.872803
0.869273
0.872979
0.877195
0.876566
0.889147
0.885703
0.896952
0.90184
0.91086
0.915847
0.923964
0.929236
0.935885
0.942321
0.94941
0.955346
0.961776
0.965699
0.97261
0.978553
0.984642
0.989638
0.996099
1.00089
1.00673
1.01176
1.01877
1.0252
1.03164
1.03774
1.04478
1.05128
1.05849
1.06542
1.07317
1.08126
1.08977
1.09675
1.10511
1.11254
1.12283
1.1314
1.14257
1.1527
1.16472
1.17521
1.18867
1.20172
1.21734
1.23228
1.24913
1.26658
1.28643
1.3073
1.33109
1.35409
1.37919
1.39119
1.40857
1.3889
1.34959
1.2776
1.18348
1.07178
0.980159
0.907724
0.871242
0.802595
0.747482
0.707741
0.662806
0.626118
0.617454
0.600205
0.596504
0.581616
0.580419
0.580673
0.58086
0.58109
0.579552
0.578429
0.579282
0.581935
0.582595
0.58427
0.584366
0.585526
0.58592
0.587363
0.587825
0.588115
0.589432
0.590682
0.591015
0.591787
0.590833
0.58793
0.588452
0.590541
0.591419
0.593016
0.594457
0.596766
0.599436
0.603076
0.604798
0.603619
0.599135
0.597482
0.594585
0.593601
0.594015
0.5943
0.594882
0.594891
0.594865
0.594782
0.59501
0.59549
0.595863
0.59735
0.599225
0.600446
0.601227
0.611426
0.631069
0.672245
0.738192
0.769372
0.771923
0.770145
0.772437
0.773021
0.775632
0.780456
0.788658
0.797531
0.806874
0.814833
0.823634
0.831844
0.840422
0.848016
0.856704
0.867945
0.878934
0.88418
0.889399
0.898493
0.908859
0.915447
0.920506
0.927045
0.934812
0.941966
0.948651
0.95521
0.961753
0.968168
0.974461
0.980469
0.986327
0.991766
0.996915
1.0017
1.00625
1.01042
1.01403
1.01763
1.0203
1.02299
1.02452
1.02648
1.02476
1.0225
1.02442
1.02462
1.02607
1.02549
1.02596
1.02533
1.02555
1.02508
1.02594
1.02498
1.02578
1.02515
1.02602
1.02501
1.02603
1.02492
1.02594
1.02486
1.02581
1.02492
1.02585
1.02466
1.02558
1.02508
1.0258
1.02498
1.02568
1.02473
1.026
1.02528
1.02362
1.02351
1.02608
1.02745
1.02661
1.02695
1.01808
1.0223
1.03394
1.0216
1.03064
1.05017
1.0191
1.01499
1.03722
1.05319
1.04929
1.04776
1.05397
1.05332
1.05439
1.04648
1.0424
1.03367
1.03025
1.02013
1.02273
1.00885
1.01564
1.00218
1.00842
0.996752
1.00587
0.981761
1.00326
0.993865
0.998412
0.990248
0.993196
0.993018
0.990387
0.998051
0.994027
1.00327
0.981598
1.00591
0.996653
1.00816
1.00218
1.01567
1.00908
1.02264
1.02015
1.03048
1.03382
1.04252
1.04603
1.05387
1.05307
1.05391
1.04835
1.04847
1.04949
1.03719
1.02725
1.03233
1.03889
1.03188
1.03747
1.03289
1.03599
1.03609
1.0386
1.04021
1.04573
1.0451
1.0536
1.05122
1.05752
1.05916
1.06097
1.06271
1.06651
1.06807
1.06969
1.07123
1.07425
1.07568
1.07761
1.07932
1.08078
1.08207
1.0846
1.08583
1.08691
1.08763
1.08982
1.09106
1.09248
1.09309
1.09427
1.09473
1.09538
1.09588
1.09632
1.09701
1.09663
1.09661
1.09666
1.09648
1.09627
1.0958
1.0956
1.09443
1.09418
1.09275
1.09238
1.09096
1.08964
1.08866
1.0869
1.08579
1.08381
1.08171
1.0797
1.07723
1.07511
1.07266
1.06997
1.06688
1.06338
1.05974
1.05582
1.05174
1.04746
1.04303
1.03837
1.03357
1.02831
1.02298
1.0175
1.01186
1.00294
0.993542
0.989363
0.985486
0.97776
0.969412
0.960895
0.952605
0.94449
0.936869
0.927975
0.920377
0.912864
0.906415
0.898524
0.892504
0.885873
0.881171
0.875207
0.873533
0.870126
0.87371
0.877855
0.877
0.889542
0.886106
0.897452
0.902143
0.911238
0.91606
0.924499
0.929791
0.936328
0.942852
0.949658
0.955872
0.962
0.966173
0.972885
0.978923
0.984852
0.990322
0.996517
1.00147
1.0072
1.01234
1.01919
1.02575
1.03199
1.0385
1.04546
1.05207
1.05925
1.06615
1.07439
1.08193
1.09089
1.09781
1.10657
1.11416
1.1246
1.13271
1.14409
1.15501
1.1669
1.17816
1.19084
1.20491
1.22053
1.23662
1.25268
1.2702
1.28968
1.30997
1.33203
1.35251
1.37009
1.38366
1.39936
1.38392
1.35996
1.29176
1.21722
1.11947
1.02815
0.953062
0.904149
0.833148
0.773195
0.734957
0.688261
0.647266
0.633347
0.609466
0.604107
0.594012
0.586556
0.58378
0.584991
0.583427
0.58273
0.582013
0.582284
0.58433
0.584967
0.586754
0.586814
0.587491
0.58776
0.589088
0.588957
0.589983
0.590857
0.592029
0.592064
0.592642
0.593029
0.588444
0.58891
0.591225
0.592062
0.593627
0.595013
0.59735
0.599969
0.603518
0.605326
0.604204
0.599948
0.598323
0.595181
0.593978
0.594508
0.594597
0.59524
0.595164
0.595333
0.595336
0.595479
0.595717
0.596451
0.59772
0.59961
0.600853
0.601633
0.611651
0.63093
0.672581
0.739078
0.76998
0.772248
0.77035
0.772685
0.773271
0.775921
0.780703
0.788899
0.797826
0.807113
0.815075
0.823859
0.832057
0.840629
0.848271
0.856987
0.868063
0.878929
0.884283
0.889672
0.898682
0.908849
0.915477
0.92066
0.927226
0.934938
0.942065
0.948761
0.955324
0.961861
0.968258
0.974533
0.980525
0.986355
0.99179
0.996937
1.00172
1.00625
1.0104
1.01398
1.01756
1.02021
1.0229
1.0244
1.02642
1.02487
1.02285
1.0255
1.02498
1.02637
1.02543
1.02599
1.02534
1.02572
1.02524
1.02578
1.02495
1.02574
1.02502
1.02586
1.02509
1.02599
1.02489
1.02587
1.02464
1.02578
1.02479
1.02562
1.02452
1.02568
1.02481
1.02571
1.02496
1.02536
1.0251
1.0259
1.02597
1.02348
1.0236
1.02396
1.02505
1.02562
1.02657
1.01892
1.02567
1.02859
1.02546
1.02851
1.04233
1.01078
1.01217
1.03588
1.05332
1.05053
1.04794
1.05417
1.05304
1.05417
1.04639
1.04285
1.03399
1.03008
1.02029
1.02229
1.00879
1.01588
1.00194
1.0086
0.99656
1.00622
0.981755
1.00341
0.99426
0.998128
0.990264
0.994126
0.994165
0.990523
0.997885
0.994364
1.00341
0.981851
1.00617
0.996507
1.00874
1.00225
1.01606
1.00896
1.0223
1.02062
1.03021
1.03411
1.04272
1.04566
1.05376
1.05283
1.05362
1.04907
1.04907
1.04918
1.037
1.02782
1.02837
1.0362
1.0395
1.03775
1.03668
1.0402
1.03659
1.04391
1.04146
1.04758
1.0468
1.05257
1.05387
1.05748
1.05944
1.06186
1.06275
1.06578
1.06815
1.06932
1.07177
1.07404
1.07543
1.07723
1.07954
1.08053
1.08194
1.08433
1.0855
1.08696
1.08754
1.08956
1.09063
1.09217
1.09318
1.09406
1.09447
1.09508
1.09567
1.09631
1.09678
1.09641
1.09636
1.09656
1.09611
1.09621
1.09562
1.09537
1.09432
1.09404
1.09253
1.09231
1.09076
1.08949
1.08852
1.08679
1.08564
1.08369
1.08161
1.07958
1.07713
1.07501
1.07255
1.06985
1.06678
1.06328
1.05965
1.05575
1.05168
1.04741
1.043
1.03835
1.03354
1.02827
1.02296
1.01747
1.0118
1.00296
0.993717
0.989488
0.985523
0.977799
0.969524
0.961031
0.952764
0.944681
0.937045
0.928238
0.920683
0.913224
0.906796
0.898918
0.893019
0.886347
0.881766
0.875713
0.874167
0.870727
0.874415
0.878578
0.878027
0.890192
0.887082
0.898209
0.902888
0.912055
0.916766
0.924997
0.930097
0.937001
0.942902
0.950396
0.95607
0.962587
0.966828
0.973453
0.979601
0.985474
0.990631
0.997081
1.00201
1.00789
1.01295
1.01992
1.02649
1.03292
1.03915
1.04617
1.05263
1.06015
1.06688
1.07492
1.08284
1.09142
1.0986
1.10718
1.11491
1.12517
1.134
1.14527
1.15526
1.16736
1.17821
1.19197
1.20512
1.22033
1.23522
1.25218
1.2696
1.28877
1.30877
1.32963
1.35018
1.36916
1.3811
1.3936
1.37389
1.3445
1.28428
1.20857
1.11283
1.02771
0.953913
0.907071
0.839609
0.783709
0.741971
0.693728
0.653954
0.639635
0.619367
0.611775
0.594975
0.593329
0.590578
0.587897
0.588414
0.586619
0.584216
0.584415
0.586305
0.586669
0.588401
0.588506
0.589214
0.589424
0.590528
0.590398
0.591002
0.591729
0.593153
0.592879
0.59385
0.593294
0.590262
0.590108
0.591912
0.592688
0.59429
0.595593
0.597863
0.600365
0.603939
0.605746
0.604718
0.600557
0.598989
0.595533
0.594669
0.594892
0.595038
0.595488
0.595609
0.595632
0.595466
0.595765
0.596263
0.596713
0.59796
0.599884
0.60129
0.601823
0.611427
0.630943
0.672584
0.739704
0.770847
0.772951
0.770642
0.772918
0.773563
0.776147
0.780949
0.789154
0.79804
0.807391
0.815299
0.824074
0.832257
0.840807
0.848477
0.857173
0.868154
0.878943
0.884423
0.889845
0.89877
0.908906
0.915536
0.920765
0.927317
0.934973
0.942083
0.948777
0.955337
0.961869
0.968277
0.974554
0.980529
0.986339
0.991727
0.996856
1.00163
1.00616
1.01032
1.01393
1.01749
1.02016
1.02279
1.02424
1.02607
1.02461
1.02283
1.0245
1.02474
1.02586
1.02528
1.0259
1.02522
1.02576
1.02505
1.02597
1.02489
1.02581
1.02506
1.0259
1.02505
1.02597
1.02491
1.02573
1.02474
1.02594
1.02481
1.02602
1.02441
1.02576
1.0247
1.02584
1.0251
1.02556
1.02532
1.02578
1.02607
1.0252
1.02495
1.02257
1.02438
1.02698
1.02757
1.0215
1.02458
1.026
1.0264
1.02974
1.03982
1.0147
1.01628
1.03913
1.05461
1.04941
1.04757
1.05397
1.05355
1.05426
1.0466
1.04221
1.03378
1.03036
1.02004
1.02291
1.00884
1.01569
1.00213
1.00845
0.99677
1.00591
0.981769
1.00324
0.993821
0.998539
0.990197
0.993251
0.992939
0.990425
0.998058
0.994021
1.00329
0.981673
1.00591
0.996712
1.00816
1.00227
1.01565
1.00897
1.02269
1.02024
1.03048
1.0338
1.04261
1.0465
1.05385
1.05276
1.05348
1.04884
1.04826
1.04895
1.03805
1.03196
1.0322
1.0398
1.03566
1.03621
1.03733
1.03711
1.03884
1.04181
1.04341
1.04684
1.04759
1.05231
1.05424
1.05525
1.06059
1.06018
1.06329
1.06577
1.06805
1.06862
1.07097
1.07308
1.07544
1.07719
1.07896
1.07998
1.08133
1.08403
1.08522
1.08643
1.08722
1.08944
1.09022
1.09165
1.09285
1.09373
1.094
1.09471
1.09547
1.09599
1.0963
1.09612
1.09608
1.09636
1.09619
1.09587
1.09519
1.09512
1.09409
1.09389
1.09236
1.09198
1.09061
1.08937
1.08832
1.0866
1.08547
1.08352
1.08144
1.07944
1.07698
1.07487
1.07241
1.06971
1.06666
1.06318
1.05955
1.05564
1.05158
1.04733
1.04292
1.03827
1.03348
1.02826
1.02296
1.01747
1.01177
1.00304
0.993957
0.989661
0.985477
0.977848
0.969689
0.961254
0.953021
0.944956
0.937346
0.928575
0.921145
0.913724
0.907274
0.899552
0.893629
0.887114
0.882382
0.876649
0.874982
0.871662
0.875262
0.879309
0.878475
0.89072
0.887418
0.898755
0.90329
0.912307
0.9169
0.925561
0.93072
0.93733
0.943777
0.950496
0.956677
0.962924
0.9671
0.97392
0.979796
0.985699
0.991378
0.9975
1.00268
1.00829
1.01367
1.0203
1.02708
1.03317
1.03997
1.04692
1.05369
1.06089
1.06789
1.07621
1.08363
1.09268
1.09977
1.10861
1.11667
1.12682
1.1354
1.1467
1.15768
1.16943
1.18096
1.19401
1.20799
1.22303
1.23885
1.25505
1.27226
1.29105
1.30971
1.32982
1.3474
1.36422
1.37304
1.3866
1.37009
1.35324
1.29408
1.23322
1.14742
1.06466
0.991257
0.935902
0.868635
0.810502
0.767777
0.718852
0.676283
0.656128
0.628536
0.619417
0.605249
0.598649
0.593997
0.593311
0.590151
0.589355
0.588348
0.587788
0.588794
0.588781
0.590175
0.590568
0.591448
0.591325
0.592397
0.592054
0.592732
0.592983
0.594328
0.594398
0.594952
0.594744
0.591154
0.590966
0.592727
0.593477
0.59485
0.59619
0.598666
0.601097
0.604344
0.606391
0.605517
0.601516
0.599816
0.596444
0.594998
0.595454
0.595568
0.596133
0.596271
0.595998
0.595834
0.596191
0.596935
0.597339
0.59845
0.600276
0.601711
0.602307
0.611472
0.630637
0.672792
0.740819
0.771887
0.77337
0.770921
0.773159
0.773895
0.776541
0.781233
0.789422
0.79843
0.807686
0.8156
0.82434
0.832513
0.841065
0.848775
0.857486
0.868282
0.878984
0.884547
0.890119
0.898956
0.90888
0.915583
0.920917
0.927488
0.935107
0.942197
0.948899
0.955457
0.961977
0.968349
0.974589
0.980546
0.986325
0.991715
0.996841
1.0016
1.00611
1.01026
1.01382
1.01739
1.02002
1.02265
1.02413
1.02589
1.02478
1.02322
1.02538
1.02501
1.02619
1.02532
1.02579
1.02521
1.02582
1.02522
1.02583
1.02488
1.0261
1.02458
1.02557
1.02516
1.026
1.02499
1.02574
1.02483
1.02583
1.02478
1.0256
1.02473
1.02567
1.02439
1.02534
1.02488
1.02593
1.02524
1.02507
1.02544
1.02489
1.02588
1.02161
1.02424
1.02585
1.02775
1.02018
1.02705
1.02291
1.02791
1.02747
1.03353
1.01161
1.01554
1.03804
1.05427
1.05076
1.04815
1.05417
1.05341
1.05434
1.04605
1.04285
1.03405
1.03
1.02011
1.02229
1.00874
1.01587
1.00192
1.00859
0.996557
1.00621
0.981755
1.00342
0.994195
0.998156
0.990218
0.994131
0.994196
0.990558
0.997563
0.994349
1.00342
0.98179
1.00617
0.996604
1.00868
1.00225
1.01608
1.00892
1.02233
1.0207
1.03007
1.03394
1.04284
1.04572
1.05363
1.05263
1.05332
1.04956
1.04875
1.04892
1.03785
1.03233
1.02987
1.03816
1.03724
1.03878
1.03938
1.04158
1.04066
1.04506
1.04487
1.04822
1.04979
1.05241
1.055
1.05716
1.05944
1.06171
1.06328
1.06482
1.06785
1.06902
1.07056
1.0732
1.07532
1.07713
1.07902
1.0797
1.08115
1.08352
1.08503
1.08615
1.08705
1.08902
1.09005
1.09141
1.09255
1.09351
1.09372
1.09441
1.09513
1.09578
1.09622
1.09568
1.09594
1.09607
1.09573
1.09577
1.09509
1.09492
1.09386
1.09363
1.09215
1.09184
1.09037
1.08916
1.08814
1.08645
1.08527
1.08336
1.08132
1.07928
1.07685
1.07474
1.07226
1.06956
1.06652
1.06305
1.05943
1.05555
1.05151
1.04728
1.04288
1.03825
1.03345
1.02821
1.02292
1.01742
1.0117
1.00306
0.994178
0.989818
0.985544
0.977905
0.969834
0.961424
0.953221
0.9452
0.937565
0.928909
0.921516
0.91416
0.907754
0.900006
0.894279
0.887681
0.88313
0.87723
0.875758
0.872459
0.876079
0.880107
0.879692
0.891355
0.888548
0.899556
0.904042
0.913296
0.917785
0.926137
0.9311
0.938163
0.94358
0.951444
0.956814
0.963487
0.967901
0.974374
0.980559
0.9864
0.991645
0.99811
1.00312
1.00907
1.01413
1.0211
1.02776
1.03416
1.04055
1.04752
1.05403
1.06176
1.06839
1.07662
1.08445
1.09325
1.10047
1.10937
1.11726
1.12748
1.13655
1.14769
1.15767
1.1698
1.18102
1.19446
1.20796
1.2227
1.23734
1.25385
1.271
1.28902
1.30774
1.3263
1.34382
1.35997
1.36841
1.37989
1.3588
1.33543
1.28266
1.22204
1.13928
1.06293
0.989263
0.937632
0.87326
0.818111
0.77398
0.725601
0.681921
0.662356
0.638251
0.627617
0.610864
0.607536
0.59852
0.596637
0.595659
0.592533
0.590464
0.590642
0.590782
0.591389
0.591848
0.592756
0.593159
0.593122
0.593146
0.593621
0.593933
0.594472
0.595308
0.595474
0.59596
0.596271
0.592585
0.59161
0.593273
0.594227
0.595584
0.596817
0.599129
0.601493
0.604845
0.606902
0.60612
0.602335
0.600618
0.596817
0.595928
0.595854
0.595973
0.596546
0.596509
0.596483
0.596468
0.596559
0.597115
0.597813
0.598738
0.600631
0.602356
0.602529
0.611268
0.630403
0.672899
0.742089
0.772929
0.774211
0.771295
0.773481
0.774237
0.776812
0.781578
0.789777
0.798702
0.808062
0.815906
0.824635
0.832779
0.841298
0.849044
0.857727
0.868412
0.879003
0.88474
0.89034
0.899073
0.908988
0.915671
0.921053
0.927604
0.935146
0.942211
0.948907
0.95546
0.961974
0.968371
0.974627
0.980565
0.986328
0.991652
0.996738
1.00148
1.00599
1.01014
1.01374
1.01728
1.01988
1.02254
1.02383
1.02556
1.02452
1.02302
1.0246
1.02464
1.0259
1.02508
1.0261
1.02503
1.02592
1.02502
1.02611
1.02502
1.02611
1.0248
1.02549
1.02514
1.02602
1.025
1.02579
1.02463
1.02614
1.02459
1.0259
1.02516
1.02583
1.02497
1.02509
1.02496
1.02581
1.02513
1.02448
1.02453
1.0264
1.02621
1.02133
1.02309
1.02562
1.02594
1.02433
1.02674
1.02364
1.02708
1.02817
1.0324
1.01698
1.02075
1.0404
1.05507
1.04949
1.04729
1.05422
1.05396
1.0549
1.04689
1.04257
1.03363
1.0304
1.02013
1.0229
1.0087
1.01577
1.00211
1.0084
0.996737
1.00586
0.981701
1.00326
0.99381
0.998535
0.990137
0.993293
0.992888
0.990438
0.997995
0.993953
1.00332
0.98168
1.00598
0.996864
1.0081
1.0023
1.01567
1.00909
1.0225
1.02026
1.03064
1.0337
1.04272
1.04643
1.05365
1.05251
1.05312
1.04928
1.04811
1.04849
1.03879
1.03434
1.03345
1.04065
1.03685
1.04039
1.0378
1.04071
1.0419
1.04424
1.04516
1.0478
1.04847
1.05275
1.05499
1.05674
1.05864
1.06212
1.06185
1.06625
1.06727
1.06854
1.07042
1.07254
1.07402
1.0767
1.07849
1.0796
1.08115
1.08318
1.08434
1.08573
1.08689
1.0886
1.08949
1.09075
1.09194
1.09346
1.09328
1.09394
1.09476
1.09537
1.09568
1.09536
1.09562
1.09592
1.09553
1.09543
1.09457
1.09458
1.09372
1.09337
1.09195
1.09145
1.09018
1.08898
1.08793
1.08619
1.08506
1.08315
1.08108
1.07911
1.07665
1.07455
1.07209
1.06939
1.06636
1.06292
1.0593
1.05541
1.05136
1.04716
1.04276
1.03813
1.03336
1.02818
1.02291
1.01743
1.01167
1.00312
0.994404
0.990012
0.985494
0.977962
0.97002
0.961677
0.953514
0.945518
0.937917
0.929278
0.922037
0.91473
0.908289
0.900759
0.894947
0.888543
0.883712
0.878285
0.876567
0.873392
0.877015
0.880881
0.880151
0.892126
0.888898
0.900126
0.904679
0.913376
0.917888
0.926624
0.931782
0.938334
0.944752
0.951352
0.957511
0.963813
0.968067
0.974963
0.980654
0.986638
0.992402
0.998548
1.00383
1.00945
1.01496
1.02156
1.02838
1.03449
1.04136
1.04842
1.05532
1.06251
1.0697
1.07786
1.08541
1.09439
1.10178
1.11063
1.11911
1.12887
1.13805
1.14913
1.1601
1.17162
1.18348
1.19645
1.21043
1.22479
1.24001
1.2562
1.27268
1.29043
1.30743
1.32534
1.3407
1.35539
1.36211
1.37291
1.35617
1.34338
1.29278
1.23775
1.16552
1.09227
1.0218
0.964614
0.900393
0.843259
0.79889
0.748907
0.703543
0.679344
0.648853
0.635719
0.620873
0.611214
0.603762
0.601076
0.596261
0.596324
0.595041
0.593161
0.592522
0.592556
0.594167
0.594679
0.595575
0.595077
0.595311
0.59461
0.595376
0.595848
0.59675
0.596736
0.59707
0.596896
0.594304
0.593269
0.594175
0.594973
0.596305
0.597551
0.599741
0.602188
0.605458
0.607493
0.606869
0.603391
0.601409
0.597841
0.596323
0.596635
0.596616
0.59711
0.597095
0.596893
0.596798
0.597208
0.597916
0.598329
0.599005
0.601311
0.602875
0.603103
0.61113
0.630063
0.672895
0.744014
0.774159
0.774763
0.771678
0.773684
0.774667
0.777329
0.781903
0.790077
0.799188
0.808418
0.816274
0.824944
0.833075
0.841608
0.849388
0.858075
0.868557
0.879099
0.88489
0.890621
0.899259
0.908948
0.915738
0.921205
0.927769
0.935292
0.94234
0.949041
0.955589
0.962087
0.968422
0.974622
0.980539
0.986269
0.99161
0.996694
1.00143
1.00589
1.01003
1.01357
1.01714
1.01967
1.02234
1.02373
1.0253
1.0247
1.02337
1.02534
1.02479
1.02599
1.02532
1.02586
1.02519
1.02588
1.02509
1.02575
1.0253
1.02574
1.02506
1.02584
1.02486
1.0258
1.02497
1.02576
1.0248
1.02549
1.02459
1.02578
1.02486
1.02532
1.02525
1.02599
1.02536
1.02557
1.02558
1.02369
1.02333
1.0254
1.02605
1.02191
1.02364
1.02441
1.02529
1.02372
1.02658
1.02291
1.02742
1.02446
1.03141
1.01625
1.02253
1.0399
1.05367
1.05069
1.04858
1.05418
1.05371
1.05456
1.0459
1.04282
1.03401
1.03003
1.02013
1.0222
1.00861
1.016
1.00191
1.00855
0.996652
1.00627
0.981763
1.00346
0.994182
0.998286
0.990135
0.994115
0.994166
0.990596
0.997451
0.994308
1.00346
0.981774
1.00621
0.996521
1.00863
1.00226
1.01606
1.00898
1.02237
1.02075
1.03011
1.03394
1.04271
1.04605
1.05334
1.05245
1.05303
1.04967
1.0486
1.04786
1.03906
1.03494
1.03266
1.03854
1.03909
1.04094
1.04186
1.04377
1.04341
1.0462
1.04629
1.04957
1.05111
1.05367
1.05486
1.05818
1.05891
1.06186
1.06319
1.06522
1.06726
1.06948
1.06957
1.07246
1.0737
1.07675
1.07831
1.07956
1.08077
1.08269
1.0841
1.0855
1.08617
1.08853
1.08902
1.09058
1.09151
1.09309
1.09306
1.09356
1.09447
1.09503
1.09526
1.09493
1.09529
1.09567
1.09518
1.09512
1.09436
1.09427
1.09341
1.09311
1.09166
1.0912
1.08995
1.0887
1.08766
1.08603
1.08479
1.08295
1.08093
1.07889
1.07649
1.07438
1.0719
1.06919
1.06619
1.06275
1.05914
1.0553
1.05128
1.04709
1.04272
1.03811
1.03333
1.02812
1.02287
1.01737
1.0116
1.00314
0.994663
0.990198
0.985592
0.978045
0.970199
0.961884
0.95376
0.945814
0.938183
0.929682
0.922491
0.915233
0.908799
0.901426
0.89554
0.88936
0.884368
0.879361
0.877072
0.874341
0.877885
0.881656
0.8815
0.892684
0.889924
0.900956
0.905362
0.914391
0.918896
0.927365
0.932114
0.939265
0.944512
0.952377
0.957619
0.964531
0.968824
0.975463
0.981413
0.987422
0.992671
0.999128
1.00428
1.01025
1.01538
1.02235
1.02903
1.03548
1.04205
1.04891
1.05565
1.06333
1.07006
1.07829
1.08608
1.09516
1.1023
1.11156
1.11944
1.12973
1.13895
1.14987
1.15994
1.17208
1.18353
1.19661
1.21008
1.22441
1.23857
1.25445
1.27084
1.28763
1.30487
1.32112
1.33644
1.34997
1.35603
1.36538
1.34581
1.3231
1.27661
1.22807
1.15585
1.08819
1.01631
0.965669
0.902789
0.850247
0.802175
0.753909
0.70998
0.684893
0.658361
0.64448
0.625462
0.620203
0.607575
0.606365
0.603333
0.600122
0.598033
0.596813
0.596269
0.595053
0.595628
0.596864
0.596807
0.597166
0.597172
0.596966
0.596364
0.597073
0.597667
0.597964
0.598263
0.598843
0.594758
0.594105
0.595014
0.595847
0.597089
0.598329
0.600221
0.602994
0.605902
0.60801
0.607562
0.604142
0.60203
0.598622
0.597216
0.596838
0.597058
0.597743
0.597562
0.597379
0.597463
0.597744
0.598142
0.598785
0.599712
0.601517
0.603483
0.603307
0.61093
0.629503
0.672753
0.746136
0.775455
0.775739
0.772102
0.774166
0.77508
0.777611
0.782316
0.790507
0.799513
0.808897
0.816661
0.825319
0.83341
0.8419
0.849724
0.858377
0.868731
0.879127
0.885142
0.890891
0.899406
0.909112
0.915858
0.921373
0.927909
0.935334
0.942353
0.949041
0.955582
0.962075
0.968454
0.974682
0.980577
0.986287
0.991544
0.996591
1.00127
1.00574
1.00986
1.01342
1.01697
1.0195
1.02214
1.02341
1.02491
1.02436
1.0232
1.02458
1.02444
1.02572
1.02494
1.02592
1.025
1.0257
1.02513
1.02599
1.02504
1.02608
1.02482
1.02594
1.02499
1.02564
1.02485
1.02576
1.02486
1.02556
1.02482
1.02587
1.02475
1.02561
1.02482
1.02544
1.02538
1.02621
1.02568
1.0249
1.02451
1.02482
1.02523
1.02411
1.02562
1.02163
1.02577
1.02373
1.02675
1.02388
1.0271
1.02649
1.03039
1.02253
1.02682
1.04176
1.05367
1.04977
1.04726
1.05439
1.05435
1.05512
1.04708
1.04241
1.03363
1.03042
1.02013
1.02295
1.0087
1.01578
1.002
1.00842
0.996702
1.00584
0.98147
1.00328
0.993736
0.998693
0.990059
0.993332
0.992883
0.990502
0.998008
0.993992
1.00332
0.981585
1.00599
0.996794
1.00811
1.00223
1.01575
1.00917
1.02257
1.02034
1.03075
1.03367
1.04246
1.04636
1.05332
1.05228
1.05285
1.04953
1.04851
1.04735
1.0404
1.03782
1.03581
1.04109
1.0379
1.0413
1.04172
1.04338
1.0434
1.04601
1.04642
1.05022
1.05093
1.0534
1.05495
1.05798
1.05846
1.06161
1.063
1.0644
1.06801
1.06735
1.07084
1.07189
1.07359
1.07538
1.07814
1.07947
1.08042
1.08251
1.08313
1.08532
1.08555
1.08802
1.08866
1.08986
1.0909
1.09266
1.09277
1.09317
1.09387
1.09451
1.0949
1.09455
1.09508
1.09504
1.09486
1.09469
1.09401
1.09398
1.09306
1.09275
1.09137
1.09087
1.08971
1.08843
1.08742
1.08572
1.08455
1.08268
1.08065
1.07868
1.07625
1.07414
1.07168
1.06899
1.06599
1.06259
1.05898
1.05512
1.0511
1.04693
1.04257
1.03795
1.0332
1.02807
1.02284
1.01738
1.01158
1.00321
0.99488
0.990416
0.985549
0.978112
0.970412
0.962175
0.954107
0.946183
0.938557
0.930128
0.922996
0.915869
0.909405
0.902181
0.896246
0.890161
0.885077
0.880366
0.877836
0.875254
0.878803
0.882533
0.881808
0.893602
0.890489
0.901532
0.90611
0.914497
0.919021
0.927677
0.932934
0.939378
0.945709
0.952196
0.958414
0.964626
0.969131
0.975995
0.981571
0.987582
0.993413
0.999618
1.00488
1.01066
1.01624
1.02292
1.02971
1.0359
1.04275
1.05001
1.05688
1.06422
1.07148
1.0795
1.0871
1.09604
1.10367
1.11273
1.12129
1.13104
1.14043
1.15148
1.16235
1.17376
1.18585
1.19835
1.21237
1.22605
1.24053
1.25625
1.27166
1.28812
1.30368
1.31941
1.33282
1.3447
1.34958
1.35828
1.34003
1.32255
1.28635
1.23801
1.17541
1.11149
1.04556
0.989754
0.928503
0.870964
0.826632
0.77681
0.731789
0.703208
0.66916
0.653371
0.63701