/*--------------------------------*- C++ -*----------------------------------*\
| =========                 |                                                 |
| \\      /  F ield         | OpenFOAM: The Open Source CFD Toolbox           |
|  \\    /   O peration     | Version:  v2006                                 |
|   \\  /    A nd           | Website:  www.openfoam.com                      |
|    \\/     M anipulation  |                                                 |
\*---------------------------------------------------------------------------*/
FoamFile
{
    version     2.0;
    format      ascii;
    class       volScalarField;
    location    "75";
    object      rho;
}
// * * * * * * * * * * * * * * * * * * * * * * * * * * * * * * * * * * * * * //

dimensions      [1 -3 0 0 0 0 0];


internalField   nonuniform List<scalar> 
93840
(
0.995696
0.99302
0.998344
0.995683
1.00209
0.986825
1.00441
0.998019
1.00618
1.00164
1.01174
1.00638
1.01653
1.01457
1.02123
1.02395
1.03133
1.03264
1.03916
1.0372
1.03854
1.02889
1.02118
1.01115
0.999696
0.984134
0.989108
1.01209
0.99339
1.00246
0.996522
1.00092
0.985469
0.99713
0.996742
1.00287
1.00239
1.00988
1.0075
1.01381
1.01371
1.01585
1.01573
1.01894
1.02021
1.02199
1.0231
1.02524
1.02536
1.02673
1.02831
1.02961
1.03056
1.03234
1.0328
1.03377
1.03354
1.03515
1.03599
1.03751
1.03744
1.03819
1.0388
1.03872
1.03888
1.0393
1.03934
1.0391
1.03874
1.03888
1.03818
1.03808
1.03741
1.03704
1.03607
1.03536
1.03436
1.03362
1.0323
1.03113
1.03002
1.02855
1.02733
1.02555
1.02368
1.02187
1.0197
1.01785
1.01562
1.01337
1.01061
1.00768
1.00458
1.0013
0.997862
0.99426
0.9905
0.986643
0.982544
0.978175
0.973676
0.969146
0.964486
0.957242
0.949747
0.94643
0.943236
0.936937
0.930183
0.923444
0.916942
0.910619
0.904725
0.897898
0.892113
0.88652
0.881825
0.876056
0.871892
0.867275
0.864427
0.860492
0.860206
0.858418
0.862342
0.866301
0.86699
0.877459
0.875809
0.885452
0.889987
0.897894
0.902495
0.90956
0.914441
0.920331
0.926167
0.932241
0.937547
0.943121
0.946733
0.952777
0.957895
0.963353
0.967772
0.97336
0.977516
0.982683
0.987116
0.993184
0.998515
1.00406
1.00924
1.0152
1.02064
1.02642
1.03223
1.03857
1.04521
1.05219
1.05766
1.06417
1.07
1.07814
1.08459
1.09304
1.10097
1.10993
1.11752
1.12647
1.13612
1.14753
1.15816
1.16908
1.18074
1.19387
1.20788
1.22516
1.24289
1.25882
1.27147
1.28654
1.27355
1.24144
1.16096
1.08287
0.981383
0.914546
0.87139
0.856709
0.798381
0.754153
0.726242
0.692657
0.663876
0.661637
0.647501
0.644868
0.634224
0.6314
0.631605
0.631105
0.628957
0.627137
0.625407
0.62507
0.625187
0.624505
0.624627
0.62413
0.623061
0.621796
0.621554
0.620734
0.619909
0.619925
0.619622
0.618531
0.61762
0.616419
0.61201
0.611638
0.612333
0.612268
0.612145
0.612594
0.613254
0.614608
0.616266
0.617242
0.615321
0.611423
0.609129
0.606596
0.604701
0.604981
0.603972
0.604294
0.602952
0.60329
0.601978
0.602325
0.601005
0.602109
0.601495
0.604101
0.603171
0.60501
0.610925
0.626334
0.655328
0.70298
0.728107
0.733437
0.734885
0.738377
0.740465
0.743642
0.748302
0.755143
0.762572
0.770238
0.777106
0.784396
0.791421
0.798538
0.805074
0.812173
0.821409
0.830334
0.835173
0.839534
0.847034
0.855288
0.861109
0.865312
0.870953
0.877114
0.883237
0.888502
0.894152
0.899266
0.904801
0.90966
0.914926
0.919394
0.924354
0.928219
0.93293
0.936297
0.940901
0.943537
0.94827
0.950248
0.954893
0.958308
0.959453
0.991331
0.972812
0.979409
0.981714
0.986493
0.991443
0.985392
0.987285
0.98282
0.980487
0.978785
0.977758
0.978144
0.977685
0.978015
0.981027
0.981412
0.980658
0.98394
0.978764
0.976078
0.971982
0.976236
0.977753
0.980391
0.982056
0.984298
0.987003
0.991217
0.99754
0.984318
0.961802
0.960614
0.958464
0.959916
0.960478
0.953101
0.952919
0.955621
0.959602
0.967532
0.961505
0.979094
1.00376
0.993673
0.990815
1.00194
1.0095
1.01768
1.02904
1.03721
1.03775
1.03946
1.03311
1.03085
1.02363
1.0215
1.01402
1.01663
1.00647
1.01163
1.00173
1.00606
0.998007
1.00386
0.986835
1.00153
0.99525
0.998611
0.992902
0.994944
0.994898
0.992905
0.998614
0.995337
1.0014
0.986803
1.00387
0.998022
1.00603
1.00168
1.01157
1.00654
1.01671
1.01423
1.0215
1.02388
1.03107
1.03262
1.03934
1.03758
1.03826
1.03273
1.02399
1.01418
1.00077
0.989217
0.988881
0.999956
0.990256
0.992249
0.991067
0.989746
0.995428
0.994248
0.9998
1.00007
1.00373
1.00693
1.00702
1.01089
1.01272
1.01343
1.01482
1.01718
1.01862
1.01978
1.02098
1.0229
1.02349
1.0246
1.02626
1.02745
1.0281
1.02975
1.03023
1.03137
1.03136
1.03279
1.03361
1.03492
1.03473
1.03578
1.0361
1.03621
1.03634
1.03673
1.03696
1.03662
1.03644
1.03641
1.03583
1.03585
1.03523
1.03496
1.03397
1.03341
1.03249
1.03184
1.03067
1.02956
1.02858
1.02723
1.02611
1.02452
1.02279
1.0211
1.01913
1.01738
1.01534
1.01326
1.0107
1.00801
1.0051
1.00206
0.998872
0.99551
0.992045
0.988449
0.984657
0.980643
0.976479
0.972317
0.968046
0.961459
0.954561
0.951395
0.948427
0.942745
0.936611
0.930469
0.924546
0.918796
0.913491
0.907347
0.90218
0.897175
0.893031
0.887936
0.884276
0.880194
0.877731
0.874305
0.874171
0.872659
0.876391
0.880367
0.880975
0.891086
0.889625
0.898861
0.903286
0.910906
0.915312
0.922297
0.927089
0.932709
0.938307
0.944181
0.949386
0.954729
0.958336
0.964074
0.969079
0.974299
0.978708
0.984061
0.98811
0.993088
0.997277
1.00304
1.00814
1.0134
1.01837
1.02396
1.02902
1.03446
1.03984
1.04583
1.05173
1.05821
1.06316
1.06925
1.07446
1.08186
1.08744
1.09513
1.10235
1.11052
1.1178
1.126
1.13529
1.14603
1.15657
1.16702
1.1785
1.19151
1.20518
1.21958
1.23384
1.24653
1.2547
1.26857
1.25604
1.23588
1.18425
1.12913
1.05285
0.985264
0.932861
0.904772
0.847547
0.803028
0.777921
0.742392
0.70988
0.703784
0.687041
0.683996
0.674421
0.669521
0.66858
0.668447
0.664916
0.663311
0.661399
0.660142
0.659655
0.658357
0.657631
0.656635
0.6547
0.652903
0.651982
0.650728
0.649398
0.648962
0.648098
0.646571
0.644905
0.644015
0.638373
0.63779
0.637926
0.637556
0.636919
0.637043
0.637111
0.638293
0.639291
0.639958
0.637456
0.633578
0.630825
0.628126
0.625758
0.625984
0.624395
0.624706
0.622799
0.623291
0.62152
0.621876
0.619829
0.6212
0.619869
0.622665
0.62099
0.623294
0.627844
0.644214
0.670653
0.715874
0.738281
0.742534
0.743589
0.746801
0.748772
0.751846
0.756345
0.762888
0.769975
0.777196
0.783668
0.790536
0.797154
0.803848
0.810051
0.816807
0.825421
0.833675
0.838266
0.842541
0.849573
0.857164
0.86257
0.866622
0.871965
0.877747
0.88345
0.888454
0.89372
0.898604
0.903715
0.908402
0.913175
0.917542
0.921827
0.925698
0.929354
0.933029
0.935868
0.939637
0.941121
0.945902
0.944649
0.952236
0.946729
0.959527
0.961628
0.96282
0.965623
0.960974
0.971858
0.973453
0.971571
0.969966
0.965941
0.96435
0.961921
0.961016
0.959562
0.959806
0.958645
0.95926
0.956682
0.95725
0.954303
0.955264
0.957766
0.96125
0.962689
0.963518
0.964328
0.966863
0.973928
0.980901
0.978462
0.961672
0.953318
0.953868
0.952461
0.955292
0.956265
0.952247
0.957541
0.945744
0.959518
0.957101
0.948391
0.964466
0.979442
0.961562
0.976132
0.999106
1.0096
1.01281
1.02464
1.03766
1.03675
1.0391
1.03301
1.03146
1.02381
1.02123
1.01472
1.01657
1.00636
1.01173
1.00158
1.00622
0.997891
1.00452
0.986654
1.00184
0.995569
0.998321
0.992981
0.995702
0.995729
0.993065
0.998405
0.995745
1.00196
0.986836
1.00429
0.997922
1.00615
1.00169
1.01167
1.00648
1.01644
1.01473
1.02131
1.02418
1.03163
1.03257
1.03913
1.03734
1.03845
1.03205
1.02999
1.01861
1.00301
0.994677
0.991238
1.00069
0.994706
0.992418
1.00008
0.997954
0.993079
1.00078
0.998159
1.00311
1.00306
1.00726
1.00813
1.01048
1.01276
1.01351
1.01466
1.01679
1.0183
1.01958
1.02086
1.02246
1.02286
1.02429
1.02586
1.02698
1.0276
1.02926
1.0299
1.03092
1.03086
1.03251
1.03287
1.0345
1.03439
1.03535
1.03563
1.03573
1.03608
1.03637
1.03659
1.03635
1.03608
1.03628
1.03575
1.0358
1.03508
1.03499
1.03411
1.03368
1.03272
1.03218
1.03117
1.03008
1.02923
1.02802
1.02693
1.02554
1.02389
1.02232
1.02052
1.01885
1.01701
1.01504
1.01264
1.01017
1.00739
1.00457
1.00158
0.998413
0.995216
0.991829
0.988313
0.984583
0.980695
0.976876
0.972899
0.966693
0.960223
0.957347
0.954687
0.949394
0.943672
0.937965
0.932442
0.927117
0.922209
0.91651
0.911714
0.907074
0.903249
0.898476
0.895024
0.891122
0.888792
0.885411
0.885239
0.883705
0.887363
0.891329
0.891812
0.90173
0.900161
0.909162
0.913491
0.92084
0.925081
0.931806
0.936313
0.941873
0.947102
0.952933
0.95775
0.963046
0.966341
0.971923
0.976637
0.981581
0.985626
0.990794
0.994633
0.999306
1.00325
1.00865
1.0135
1.01843
1.02298
1.02827
1.03298
1.03824
1.04321
1.04875
1.05448
1.06059
1.06551
1.07138
1.07656
1.08379
1.08983
1.09756
1.10451
1.11282
1.12007
1.12934
1.13822
1.14873
1.15875
1.17019
1.18193
1.19493
1.20877
1.2243
1.24043
1.2565
1.26438
1.27774
1.26341
1.24054
1.1923
1.13312
1.05288
0.98916
0.934165
0.907731
0.855761
0.813409
0.781529
0.745823
0.715941
0.70918
0.694405
0.691472
0.679071
0.677953
0.677714
0.677983
0.677351
0.676428
0.674705
0.674916
0.676014
0.676153
0.676311
0.675617
0.674799
0.674047
0.673298
0.672541
0.670811
0.670676
0.669549
0.668685
0.66703
0.664968
0.660671
0.660044
0.659411
0.658957
0.658103
0.658191
0.658017
0.659228
0.659832
0.660371
0.657483
0.653424
0.650154
0.647403
0.644665
0.644632
0.642841
0.643107
0.641051
0.641091
0.638885
0.639237
0.637323
0.638042
0.636788
0.639054
0.637338
0.639315
0.643335
0.661457
0.681409
0.730684
0.751829
0.754791
0.75484
0.75736
0.75882
0.761405
0.765537
0.771715
0.77844
0.785323
0.791403
0.797891
0.804139
0.81048
0.816338
0.822743
0.830933
0.838822
0.843162
0.847204
0.853844
0.861091
0.866152
0.869991
0.874996
0.880532
0.885895
0.890722
0.895639
0.900382
0.905112
0.90972
0.914043
0.918421
0.92214
0.92617
0.929025
0.933036
0.934819
0.939023
0.939456
0.944288
0.942946
0.948369
0.946181
0.949068
0.951962
0.953656
0.957096
0.958275
0.960406
0.963836
0.966639
0.967961
0.965567
0.964412
0.961724
0.960762
0.959214
0.959052
0.957331
0.957087
0.955753
0.95694
0.956451
0.958013
0.958007
0.960175
0.960452
0.96163
0.962271
0.963386
0.963853
0.963711
0.960514
0.956072
0.954001
0.953995
0.953512
0.955512
0.956484
0.955867
0.9564
0.949519
0.95328
0.960941
0.952623
0.965168
0.973239
0.95363
0.967341
0.998414
1.00877
1.00894
1.02264
1.03505
1.03793
1.0398
1.03311
1.03106
1.02376
1.02142
1.01398
1.01667
1.00639
1.01157
1.00173
1.00606
0.99807
1.00378
0.986995
1.00171
0.995242
0.998669
0.992846
0.994998
0.994861
0.992945
0.998605
0.995499
1.00153
0.986782
1.00386
0.998017
1.00574
1.00177
1.01153
1.00661
1.0166
1.01431
1.02156
1.02381
1.03102
1.03283
1.03897
1.03775
1.03866
1.03421
1.02959
1.02244
1.00451
0.996119
0.998084
1.00161
0.99502
0.998867
0.995403
0.997281
0.997293
0.998722
1.00006
1.00345
1.00334
1.00876
1.00743
1.01134
1.01279
1.01369
1.01505
1.01746
1.0186
1.01957
1.02066
1.0226
1.02366
1.02476
1.02598
1.02691
1.02772
1.02945
1.03012
1.031
1.03127
1.03283
1.03347
1.03454
1.03473
1.03559
1.0358
1.03615
1.03653
1.03668
1.0371
1.03683
1.03672
1.03673
1.03647
1.03641
1.03581
1.03583
1.03483
1.03461
1.03366
1.03318
1.03232
1.03123
1.03051
1.02932
1.02832
1.02707
1.02547
1.02403
1.02234
1.02074
1.01906
1.01715
1.01491
1.0126
1.00993
1.00729
1.00443
1.00145
0.998459
0.995229
0.99195
0.988453
0.984791
0.981223
0.977442
0.971599
0.965488
0.962761
0.960238
0.955282
0.949889
0.944503
0.939248
0.934194
0.929541
0.924096
0.919541
0.91507
0.911369
0.906771
0.903327
0.899536
0.897081
0.893812
0.893401
0.891885
0.895273
0.899082
0.899149
0.909079
0.907225
0.91627
0.920272
0.927514
0.931517
0.938348
0.942689
0.947939
0.953091
0.958428
0.963316
0.968072
0.971393
0.976513
0.981082
0.985579
0.98971
0.994296
0.997972
1.00217
1.00585
1.01075
1.01538
1.01976
1.02432
1.02925
1.03387
1.03892
1.04377
1.04948
1.05475
1.06097
1.06584
1.07195
1.07717
1.08439
1.09007
1.09781
1.10531
1.11335
1.12108
1.12967
1.13924
1.14974
1.16045
1.17118
1.18304
1.1958
1.20916
1.22348
1.2378
1.24898
1.25776
1.27085
1.2609
1.24787
1.20077
1.15276
1.08384
1.0228
0.966034
0.933953
0.878081
0.834713
0.803585
0.768919
0.733418
0.724167
0.702593
0.700615
0.690084
0.685591
0.681347
0.683279
0.682244
0.681483
0.680544
0.681293
0.68251
0.683167
0.683951
0.684538
0.684209
0.684504
0.684731
0.684612
0.684323
0.684772
0.684128
0.683715
0.682303
0.681806
0.676134
0.675819
0.675374
0.67499
0.674098
0.674264
0.673984
0.675312
0.67577
0.676358
0.673286
0.669277
0.665821
0.66276
0.659584
0.659566
0.657469
0.657651
0.655373
0.655357
0.653176
0.653169
0.651061
0.65169
0.650395
0.652024
0.65093
0.651478
0.657895
0.670015
0.694368
0.743793
0.764371
0.766229
0.765457
0.767344
0.768233
0.770382
0.774095
0.779901
0.786339
0.79286
0.798629
0.804786
0.810715
0.816769
0.822365
0.828522
0.836302
0.843842
0.847997
0.851983
0.858308
0.865163
0.869963
0.873703
0.878464
0.883788
0.88886
0.893557
0.898201
0.902829
0.907249
0.911762
0.915754
0.920082
0.923468
0.927537
0.930027
0.934009
0.935496
0.939312
0.939915
0.943494
0.943478
0.946079
0.946692
0.945978
0.946747
0.949471
0.950795
0.953404
0.954653
0.956842
0.958393
0.961483
0.962923
0.963798
0.96216
0.961457
0.959849
0.959633
0.958563
0.958393
0.956662
0.956703
0.95572
0.957094
0.956455
0.957605
0.957061
0.958161
0.957449
0.958372
0.958026
0.957903
0.956495
0.95535
0.954859
0.953771
0.953701
0.954058
0.954824
0.955083
0.956135
0.949739
0.955763
0.956916
0.955737
0.959719
0.96591
0.945747
0.956298
0.992333
1.00807
1.00705
1.01947
1.03532
1.03643
1.03878
1.03311
1.03151
1.02375
1.02121
1.0146
1.01646
1.00641
1.01165
1.00152
1.00624
0.997966
1.00454
0.986681
1.00184
0.995629
0.998452
0.992939
0.995702
0.995774
0.993144
0.998567
0.995887
1.00203
0.987027
1.00439
0.997898
1.00624
1.00181
1.01171
1.00653
1.0164
1.01471
1.02118
1.02439
1.03145
1.03243
1.03878
1.03752
1.03839
1.03407
1.03409
1.02715
1.00886
0.99919
0.997182
1.00073
1.00321
1.00077
1.0002
1.00137
0.999388
1.00374
1.00235
1.00604
1.00585
1.00933
1.01049
1.01261
1.01417
1.01549
1.01633
1.01809
1.01981
1.02045
1.02217
1.02357
1.0246
1.02555
1.02729
1.0278
1.02874
1.03031
1.03101
1.03209
1.03228
1.03369
1.03429
1.0354
1.0359
1.03654
1.03675
1.03708
1.03756
1.03779
1.03816
1.03792
1.03778
1.03795
1.03754
1.0377
1.03708
1.03713
1.03621
1.03604
1.0351
1.03475
1.0339
1.03285
1.03227
1.03112
1.03017
1.02909
1.0275
1.02619
1.0246
1.02308
1.02154
1.01968
1.01761
1.01541
1.01285
1.01041
1.00767
1.00486
1.00207
0.998989
0.995923
0.992594
0.989132
0.985786
0.98216
0.97659
0.970788
0.968223
0.965877
0.961092
0.955929
0.950758
0.945666
0.940797
0.936247
0.930961
0.926467
0.922066
0.918375
0.913729
0.910262
0.906349
0.903853
0.900326
0.899862
0.898176
0.901463
0.905193
0.905263
0.914803
0.91299
0.921741
0.925615
0.932738
0.936535
0.943022
0.947042
0.952374
0.956852
0.962479
0.966683
0.971512
0.974606
0.979469
0.983851
0.988107
0.991792
0.996375
0.999918
1.00408
1.00758
1.0125
1.01719
1.02171
1.02605
1.03094
1.03545
1.04076
1.04552
1.05112
1.05671
1.06265
1.0677
1.07368
1.07908
1.08615
1.09227
1.09999
1.10698
1.11508
1.12255
1.13176
1.14071
1.15091
1.16107
1.17202
1.18387
1.19621
1.20968
1.22237
1.23687
1.24932
1.25713
1.26731
1.25384
1.23671
1.19735
1.14733
1.0796
1.0219
0.966273
0.933587
0.881692
0.840933
0.807474
0.770852
0.737257
0.72643
0.709125
0.704069
0.688864
0.689828
0.685537
0.684395
0.683658
0.682618
0.679764
0.680854
0.681908
0.682635
0.6834
0.68426
0.684264
0.684996
0.685333
0.685928
0.685842
0.687
0.6872
0.687728
0.687701
0.687549
0.683959
0.684259
0.68431
0.684844
0.684772
0.685639
0.685736
0.687473
0.688317
0.689174
0.686297
0.682344
0.679033
0.675639
0.672796
0.67247
0.670438
0.670327
0.668266
0.667876
0.665679
0.665493
0.663762
0.663745
0.662684
0.663802
0.663197
0.663109
0.669055
0.681054
0.705622
0.754868
0.777566
0.778469
0.776696
0.777891
0.778255
0.779837
0.78316
0.788593
0.794627
0.800893
0.806309
0.812148
0.817755
0.823512
0.828833
0.834695
0.842135
0.849387
0.853393
0.857204
0.863216
0.869859
0.87439
0.877968
0.882445
0.887554
0.892354
0.896909
0.901292
0.905793
0.909959
0.914367
0.918087
0.9223
0.925426
0.929376
0.931754
0.935462
0.937101
0.940254
0.941432
0.943735
0.944703
0.945668
0.946826
0.945477
0.944699
0.946296
0.947128
0.948791
0.949677
0.951758
0.952547
0.954784
0.956315
0.959284
0.959762
0.960489
0.95967
0.959661
0.959273
0.959997
0.958251
0.958095
0.95663
0.957531
0.956248
0.957004
0.955927
0.956791
0.95568
0.956517
0.955829
0.956212
0.955392
0.955073
0.955271
0.954998
0.954701
0.953268
0.954433
0.956227
0.956787
0.952167
0.954683
0.955372
0.955719
0.95969
0.966059
0.952084
0.957117
0.988894
1.00801
1.0042
1.01636
1.03231
1.03757
1.03983
1.0331
1.03088
1.02389
1.02147
1.0139
1.01695
1.00631
1.01149
1.00179
1.00609
0.998082
1.00396
0.98687
1.0016
0.995161
0.998741
0.992807
0.995004
0.994823
0.992958
0.998597
0.995643
1.00142
0.986872
1.00385
0.998053
1.00576
1.00187
1.01143
1.00649
1.01673
1.01434
1.02154
1.02388
1.03106
1.03322
1.0388
1.03753
1.03836
1.03462
1.03233
1.03039
1.01365
1.00398
1.00331
1.00531
1.00251
1.00157
1.00208
1.00154
1.00225
1.00445
1.00508
1.00756
1.00781
1.01102
1.01224
1.01285
1.01646
1.0161
1.01812
1.01976
1.02122
1.02164
1.02308
1.02459
1.02599
1.02715
1.02837
1.029
1.02973
1.03169
1.03232
1.03328
1.03354
1.03512
1.03555
1.03653
1.03723
1.03785
1.03799
1.03842
1.03899
1.03915
1.03949
1.03938
1.03926
1.03952
1.03932
1.03924
1.0386
1.03882
1.03792
1.03788
1.03698
1.03654
1.03594
1.03488
1.0344
1.03324
1.03243
1.03145
1.02986
1.02872
1.0272
1.02576
1.02436
1.02254
1.02065
1.01856
1.0161
1.01383
1.01118
1.00856
1.00593
1.00298
1.00013
0.996976
0.993704
0.990542
0.987017
0.981725
0.976165
0.973688
0.971347
0.96675
0.961774
0.956757
0.951729
0.946932
0.942403
0.93711
0.932645
0.92818
0.924361
0.91968
0.915988
0.91206
0.909211
0.905744
0.904905
0.903161
0.906153
0.909599
0.909233
0.918707
0.916426
0.925229
0.92867
0.935482
0.938867
0.94538
0.949066
0.953968
0.958567
0.963396
0.967734
0.972136
0.975018
0.979877
0.983964
0.988229
0.992258
0.996522
1.00017
1.00416
1.00791
1.01248
1.0172
1.02149
1.02629
1.03127
1.03601
1.04106
1.04601
1.05171
1.05692
1.06323
1.06816
1.07434
1.07997
1.08684
1.09291
1.10052
1.10834
1.1163
1.12435
1.13293
1.14259
1.15213
1.16354
1.17365
1.18586
1.19737
1.21069
1.22241
1.23482
1.24544
1.25101
1.26261
1.25268
1.24353
1.20294
1.16347
1.10484
1.04705
0.994532
0.955823
0.905224
0.863196
0.828458
0.791777
0.757215
0.741674
0.718422
0.712163
0.699088
0.695146
0.690779
0.690361
0.687044
0.687259
0.685811
0.685872
0.685881
0.68641
0.687034
0.687845
0.688006
0.688201
0.688652
0.688849
0.688778
0.68954
0.69008
0.690533
0.690578
0.690617
0.687348
0.687415
0.688202
0.68909
0.689573
0.691305
0.692264
0.694728
0.696115
0.69787
0.69581
0.692427
0.689483
0.686425
0.683348
0.683246
0.681428
0.681308
0.679499
0.678669
0.676761
0.676387
0.675156
0.674804
0.673953
0.674704
0.674226
0.674125
0.679746
0.691263
0.716489
0.766715
0.790089
0.790215
0.787978
0.788726
0.788669
0.789855
0.7927
0.797746
0.803539
0.809409
0.814539
0.820044
0.825332
0.830826
0.835887
0.841497
0.848517
0.855475
0.859284
0.86303
0.868753
0.875029
0.879359
0.882834
0.887065
0.891973
0.896504
0.900916
0.905056
0.909406
0.913308
0.917533
0.921026
0.925045
0.928033
0.93176
0.934169
0.937472
0.939361
0.941827
0.94344
0.944938
0.946188
0.946676
0.947511
0.946358
0.944989
0.946465
0.946278
0.947432
0.947148
0.948415
0.94882
0.950346
0.951046
0.95311
0.954459
0.956776
0.95667
0.957607
0.957528
0.958914
0.958468
0.959658
0.958799
0.959461
0.957838
0.957564
0.956359
0.956972
0.955485
0.955855
0.955209
0.955714
0.955204
0.954886
0.95524
0.954768
0.955369
0.95253
0.954351
0.955394
0.956951
0.951256
0.956204
0.952785
0.956627
0.956943
0.961498
0.949949
0.955035
0.980581
1.00134
1.00249
1.01318
1.0319
1.0354
1.03908
1.03291
1.03149
1.02413
1.02114
1.01406
1.01652
1.00638
1.01168
1.00154
1.00617
0.997943
1.00455
0.986639
1.00188
0.99556
0.998483
0.99292
0.995696
0.995799
0.993167
0.998252
0.996015
1.0021
0.987121
1.00444
0.997998
1.00629
1.00184
1.01167
1.00648
1.01649
1.01485
1.02099
1.02416
1.03136
1.03274
1.03858
1.03742
1.03822
1.03531
1.03537
1.03285
1.01898
1.00691
1.00422
1.00765
1.00612
1.0065
1.00586
1.00747
1.00567
1.00953
1.00817
1.01119
1.01128
1.01364
1.01467
1.01665
1.01756
1.01944
1.01999
1.02137
1.02299
1.02413
1.02472
1.02681
1.02778
1.02924
1.03031
1.0308
1.03151
1.0334
1.03418
1.03503
1.03531
1.03678
1.03743
1.03831
1.03905
1.03966
1.03982
1.04018
1.04074
1.041
1.04155
1.04113
1.04122
1.04141
1.04112
1.04133
1.04073
1.04091
1.03999
1.04003
1.03921
1.03884
1.03826
1.03722
1.03689
1.03575
1.03502
1.03415
1.03259
1.03158
1.03014
1.02877
1.02748
1.02571
1.02398
1.02197
1.01963
1.01754
1.01498
1.01255
1.01006
1.00723
1.00455
1.00147
0.998358
0.995315
0.991857
0.986768
0.981405
0.978961
0.976669
0.972055
0.967169
0.962167
0.957099
0.952291
0.947621
0.942279
0.937664
0.933089
0.929135
0.924163
0.920424
0.916196
0.913263
0.90933
0.908463
0.906379
0.909215
0.912373
0.912171
0.920847
0.91874
0.926991
0.930332
0.937163
0.940449
0.946487
0.950032
0.955138
0.958958
0.96455
0.968409
0.973081
0.976183
0.980773
0.985151
0.989232
0.993014
0.997568
1.00112
1.00521
1.00899
1.01373
1.01849
1.02284
1.02734
1.03212
1.03689
1.04211
1.04716
1.05273
1.0584
1.06423
1.06953
1.07529
1.08128
1.08778
1.09458
1.10162
1.109
1.11669
1.12522
1.13345
1.14363
1.15231
1.16324
1.17292
1.1856
1.19624
1.20965
1.22086
1.23232
1.24318
1.24841
1.25822
1.2445
1.23123
1.19554
1.15544
1.09719
1.04474
0.991516
0.954282
0.906976
0.864774
0.832668
0.793548
0.759746
0.743161
0.725277
0.715414
0.702624
0.699366
0.692562
0.689767
0.690021
0.686351
0.685647
0.684793
0.685839
0.685467
0.686573
0.687233
0.687196
0.687813
0.6871
0.6877
0.688298
0.688067
0.689396
0.689377
0.689888
0.690072
0.686891
0.686425
0.687347
0.688452
0.689266
0.690658
0.692387
0.694647
0.696856
0.699001
0.697851
0.695083
0.693136
0.690329
0.688854
0.688803
0.688042
0.688283
0.687242
0.686696
0.685653
0.684984
0.684239
0.683869
0.683449
0.68398
0.684184
0.683515
0.688948
0.700471
0.726331
0.778392
0.802139
0.801944
0.799106
0.799508
0.799136
0.79988
0.802495
0.807269
0.812659
0.818347
0.823162
0.828389
0.833362
0.838568
0.843382
0.848705
0.855391
0.862036
0.865733
0.869309
0.874726
0.880842
0.884909
0.888231
0.892189
0.896847
0.901112
0.905352
0.909263
0.913444
0.917162
0.921225
0.924528
0.928325
0.931149
0.934558
0.936996
0.939939
0.941992
0.944083
0.945802
0.946968
0.948131
0.948336
0.948837
0.947521
0.945911
0.946575
0.946217
0.946992
0.946317
0.947157
0.946786
0.947807
0.947914
0.949248
0.94966
0.951867
0.952389
0.95407
0.954316
0.955811
0.955677
0.957237
0.957112
0.959008
0.958175
0.959471
0.958751
0.959226
0.957451
0.956333
0.955441
0.955732
0.954536
0.953995
0.954037
0.955529
0.955491
0.952364
0.95351
0.955325
0.955833
0.954505
0.956062
0.953315
0.955658
0.95691
0.960712
0.953184
0.957762
0.975436
0.992991
0.99621
1.00873
1.02898
1.03608
1.03987
1.03302
1.03098
1.02406
1.02142
1.01387
1.01683
1.0061
1.0116
1.00189
1.00608
0.998004
1.00395
0.986873
1.0018
0.995259
0.998741
0.992794
0.995071
0.994791
0.993025
0.998769
0.995724
1.0017
0.986787
1.00391
0.998171
1.00574
1.00194
1.01134
1.00654
1.01666
1.01441
1.02156
1.02388
1.03101
1.03305
1.03867
1.03736
1.03799
1.0348
1.03375
1.03396
1.02348
1.01328
1.0087
1.01339
1.00801
1.01116
1.00701
1.01006
1.00893
1.01202
1.01081
1.01366
1.01276
1.01651
1.01709
1.01888
1.01931
1.0222
1.02132
1.02485
1.02498
1.02627
1.02695
1.02871
1.02914
1.03133
1.0322
1.03306
1.03384
1.03558
1.0361
1.03689
1.03755
1.03875
1.0395
1.04011
1.04104
1.04187
1.04191
1.04211
1.04285
1.04309
1.04364
1.04326
1.0434
1.04373
1.04346
1.0436
1.04289
1.04321
1.04248
1.04252
1.04176
1.04127
1.04095
1.03989
1.03968
1.03848
1.03794
1.03709
1.03552
1.03475
1.0333
1.03203
1.03084
1.02913
1.02756
1.0256
1.02339
1.02141
1.0189
1.01665
1.01424
1.0115
1.00899
1.00601
1.00303
1.00005
0.996591
0.991643
0.986339
0.983885
0.981424
0.976813
0.971947
0.966886
0.961683
0.956758
0.951908
0.946288
0.941538
0.936644
0.932296
0.927004
0.923049
0.918396
0.915189
0.910598
0.910099
0.906745
0.911089
0.912268
0.913589
0.92077
0.920068
0.926605
0.931454
0.936304
0.941221
0.945979
0.951201
0.954444
0.960503
0.963656
0.969391
0.972487
0.976966
0.980444
0.98598
0.988833
0.994152
0.997207
1.00224
1.00478
1.01007
1.01338
1.01973
1.02263
1.02883
1.03241
1.03853
1.04211
1.04851
1.05292
1.05973
1.06457
1.07137
1.07593
1.08343
1.08856
1.0963
1.10236
1.11148
1.11771
1.12723
1.13461
1.14567
1.15395
1.16552
1.17501
1.18658
1.19782
1.2092
1.22066
1.23045
1.24024
1.24421
1.25364
1.24399
1.23782
1.20248
1.16573
1.11629
1.06613
1.01558
0.976043
0.928637
0.886516
0.852554
0.814649
0.778093
0.760749
0.734879
0.725059
0.712195
0.705227
0.697583
0.696811
0.691563
0.692999
0.691081
0.689804
0.688515
0.689029
0.689759
0.690907
0.690899
0.691122
0.690512
0.690564
0.690634
0.691521
0.691987
0.692086
0.692079
0.692207
0.689644
0.688959
0.689245
0.690333
0.691042
0.69243
0.693858
0.696165
0.698418
0.700029
0.699934
0.696622
0.69533
0.692136
0.691209
0.690936
0.69131
0.691248
0.691558
0.690676
0.690972
0.690382
0.69119
0.690063
0.690976
0.691029
0.692764
0.69049
0.696471
0.70849
0.735062
0.78944
0.813512
0.812551
0.809475
0.809651
0.809271
0.809879
0.812153
0.816715
0.822066
0.827427
0.832064
0.837024
0.841733
0.846737
0.851331
0.85643
0.862717
0.869127
0.872599
0.876095
0.881248
0.887012
0.890941
0.894153
0.897886
0.902346
0.906368
0.910433
0.914133
0.918118
0.921599
0.925404
0.928535
0.932062
0.934809
0.937925
0.940346
0.942969
0.945043
0.946861
0.948544
0.949526
0.950543
0.95066
0.950917
0.949656
0.947985
0.948694
0.947689
0.948058
0.947197
0.947227
0.946677
0.947053
0.946664
0.947391
0.947286
0.948352
0.94856
0.950391
0.950496
0.952043
0.952078
0.953471
0.953499
0.95511
0.955153
0.956868
0.956823
0.95773
0.957933
0.958616
0.958195
0.958583
0.958093
0.956149
0.95469
0.955625
0.955331
0.952521
0.953364
0.954298
0.955651
0.95449
0.956348
0.952737
0.9557
0.953098
0.958477
0.949428
0.955443
0.968996
0.983303
0.990585
1.00526
1.02704
1.03461
1.03917
1.03376
1.03144
1.02394
1.02117
1.01401
1.01638
1.0064
1.01181
1.00156
1.00623
0.998008
1.00469
0.986761
1.00189
0.995555
0.99864
0.992858
0.995721
0.995814
0.993221
0.998259
0.996118
1.00223
0.987151
1.00452
0.997911
1.00627
1.00192
1.01157
1.00644
1.01656
1.01489
1.02106
1.02406
1.03121
1.03315
1.03819
1.03741
1.03791
1.03531
1.03475
1.03427
1.02606
1.01926
1.01166
1.01616
1.01349
1.01503
1.01379
1.01524
1.01393
1.01619
1.01539
1.01737
1.01818
1.01966
1.02042
1.02227
1.02277
1.0245
1.02545
1.02674
1.02807
1.02956
1.02929
1.03115
1.03179
1.03395
1.03498
1.03565
1.03656
1.03795
1.03871
1.03917
1.03994
1.04129
1.0421
1.04253
1.04354
1.04417
1.04454
1.04439
1.04543
1.04558
1.04614
1.04561
1.04589
1.04633
1.04602
1.04622
1.04557
1.04585
1.04516
1.04533
1.04453
1.04413
1.04389
1.04278
1.04272
1.04159
1.0411
1.04029
1.0388
1.03814
1.03673
1.03552
1.0344
1.03274
1.03131
1.02936
1.02729
1.02543
1.02299
1.02089
1.01853
1.01587
1.01343
1.0104
1.0075
1.00447
1.00096
0.99606
0.990781
0.988211
0.985625
0.980788
0.97582
0.970473
0.964985
0.959667
0.954404
0.948364
0.943367
0.938215
0.933671
0.92816
0.92397
0.919265
0.915822
0.911616
0.910621
0.907866
0.911787
0.912953
0.914411
0.921189
0.920733
0.9275
0.93218
0.937193
0.942012
0.946522
0.951426
0.955132
0.96032
0.964685
0.969628
0.973103
0.977524
0.980893
0.986517
0.989672
0.994573
0.997903
1.00269
1.00561
1.01046
1.01403
1.02001
1.02347
1.02933
1.03307
1.03902
1.0432
1.04904
1.05361
1.06013
1.0652
1.07143
1.07689
1.08356
1.08974
1.09705
1.10349
1.11114
1.11869
1.12715
1.13499
1.14483
1.1541
1.16422
1.17484
1.1855
1.19645
1.2079
1.21808
1.22794
1.23674
1.24025
1.24859
1.23649
1.22294
1.19074
1.15882
1.10851
1.06177
1.01025
0.974818
0.927626
0.889764
0.852405
0.815244
0.781814
0.761083
0.741098
0.728427
0.714418
0.709153
0.698848
0.698105
0.695124
0.693558
0.690786
0.690361
0.689408
0.688574
0.689208
0.689479
0.690456
0.689969
0.690832
0.690066
0.689768
0.690807
0.690592
0.69116
0.691568
0.691543
0.6888
0.687644
0.688653
0.689709
0.690217
0.691326
0.69307
0.695023
0.69716
0.699187
0.699368
0.69595
0.69449
0.691208
0.690567
0.689956
0.690548
0.690749
0.691059
0.690365
0.691053
0.690759
0.691592
0.691568
0.692719
0.693263
0.695958
0.694512
0.700615
0.713611
0.74181
0.798803
0.822925
0.821909
0.81853
0.818806
0.81845
0.818885
0.821289
0.825874
0.831046
0.836452
0.840924
0.845768
0.850269
0.855074
0.859516
0.864394
0.870407
0.876515
0.879942
0.883271
0.888138
0.893804
0.897492
0.900568
0.904065
0.908254
0.912033
0.915897
0.919402
0.923188
0.926538
0.930162
0.933131
0.936407
0.938971
0.941777
0.944068
0.946459
0.948454
0.950136
0.951711
0.95257
0.95348
0.953335
0.953437
0.952012
0.950259
0.950356
0.949424
0.949568
0.948416
0.94848
0.947378
0.947507
0.946771
0.947289
0.94647
0.947353
0.946558
0.947842
0.947693
0.948953
0.948903
0.950292
0.950056
0.951403
0.951408
0.953056
0.953035
0.954458
0.954601
0.955693
0.956048
0.957171
0.957236
0.957095
0.957002
0.95739
0.957474
0.956985
0.95743
0.955202
0.957227
0.955504
0.957175
0.954162
0.955479
0.954096
0.956697
0.952003
0.956079
0.966298
0.977554
0.984272
0.999022
1.02333
1.03482
1.03929
1.03212
1.03089
1.02384
1.02177
1.01387
1.01687
1.00614
1.01164
1.00196
1.00608
0.997952
1.00398
0.9867
1.0018
0.995136
0.998844
0.992761
0.995164
0.994805
0.9931
0.998763
0.995769
1.00186
0.986749
1.00396
0.998134
1.00573
1.00195
1.01142
1.00654
1.0167
1.01455
1.02165
1.02386
1.03091
1.0333
1.03804
1.03737
1.03772
1.03501
1.03473
1.03413
1.02822
1.02575
1.01921
1.02154
1.01783
1.01872
1.01835
1.01844
1.01819
1.01926
1.01936
1.02089
1.02173
1.02251
1.02392
1.02501
1.02597
1.0273
1.02885
1.02917
1.03206
1.03097
1.0333
1.03366
1.03496
1.03606
1.03815
1.03871
1.03956
1.04091
1.04097
1.04202
1.04275
1.0438
1.04508
1.04486
1.04615
1.04682
1.04739
1.04705
1.04813
1.04831
1.04884
1.04833
1.04874
1.04905
1.04884
1.04908
1.04837
1.04882
1.04813
1.04834
1.04755
1.0472
1.04706
1.04593
1.04604
1.04481
1.0445
1.04364
1.04218
1.04175
1.04027
1.03912
1.0381
1.03649
1.03515
1.03322
1.03125
1.02942
1.02699
1.02499
1.0226
1.01999
1.01759
1.01456
1.01169
1.00857
1.00494
0.999858
0.994338
0.991528
0.988464
0.983111
0.97791
0.972269
0.966583
0.960971
0.955473
0.949289
0.944093
0.938931
0.93433
0.929038
0.924649
0.920158