/*--------------------------------*- C++ -*----------------------------------*\
| =========                 |                                                 |
| \\      /  F ield         | OpenFOAM: The Open Source CFD Toolbox           |
|  \\    /   O peration     | Version:  v2006                                 |
|   \\  /    A nd           | Website:  www.openfoam.com                      |
|    \\/     M anipulation  |                                                 |
\*---------------------------------------------------------------------------*/
FoamFile
{
    version     2.0;
    format      ascii;
    class       volScalarField;
    location    "75";
    object      T;
}
// * * * * * * * * * * * * * * * * * * * * * * * * * * * * * * * * * * * * * //

dimensions      [0 0 0 1 0 0 0];


internalField   nonuniform List<scalar> 
93840
(
0.998385
0.99735
0.999488
0.998657
1.0013
0.994871
1.00177
0.998636
1.00241
1.0005
1.00412
1.00242
1.00569
1.00574
1.00874
1.00973
1.01105
1.01275
1.01444
1.01482
1.01513
1.01872
1.02844
1.03888
1.03689
1.03559
1.03175
1.03242
1.02931
1.03221
1.03527
1.03716
1.03883
1.03546
1.04199
1.03881
1.04313
1.04208
1.04455
1.04391
1.04639
1.045
1.04674
1.0464
1.04797
1.04777
1.04885
1.04904
1.04961
1.04952
1.0507
1.05073
1.05148
1.05175
1.05242
1.0524
1.05277
1.05298
1.05375
1.05415
1.05439
1.05468
1.05511
1.05512
1.05543
1.05571
1.05598
1.05599
1.05621
1.05635
1.05655
1.05659
1.05682
1.05692
1.05693
1.05706
1.05704
1.05719
1.05719
1.05708
1.05729
1.05711
1.05727
1.05712
1.05697
1.05686
1.05668
1.05652
1.05644
1.05615
1.05593
1.05547
1.05509
1.05463
1.05415
1.05362
1.05313
1.05252
1.05201
1.05128
1.05062
1.04993
1.04926
1.04752
1.04539
1.04493
1.04488
1.04348
1.04178
1.04004
1.03828
1.03653
1.03484
1.03261
1.03054
1.0285
1.02662
1.02412
1.02192
1.01952
1.01747
1.0148
1.01317
1.01106
1.01075
1.01108
1.00936
1.0121
1.0098
1.01154
1.01209
1.01321
1.01379
1.01476
1.01531
1.01578
1.01673
1.01748
1.01822
1.01886
1.01894
1.0198
1.02052
1.0212
1.02162
1.02234
1.02267
1.02321
1.02359
1.02448
1.02526
1.02596
1.02663
1.02748
1.02833
1.02928
1.03025
1.03127
1.03251
1.03384
1.03476
1.03599
1.0369
1.03856
1.03976
1.0417
1.04365
1.04588
1.04773
1.05013
1.05292
1.0562
1.05944
1.06317
1.06737
1.07194
1.0768
1.08297
1.08868
1.09478
1.09863
1.10287
1.09975
1.08295
1.06617
1.02932
0.999849
0.971308
0.961456
0.957277
0.935317
0.918291
0.910827
0.898559
0.890232
0.893554
0.891808
0.895339
0.895055
0.898372
0.902524
0.906738
0.909775
0.911884
0.915025
0.91875
0.922727
0.925368
0.928513
0.931168
0.934037
0.936473
0.939784
0.941932
0.944697
0.947281
0.950115
0.951905
0.954839
0.956083
0.956485
0.95887
0.962477
0.964328
0.967042
0.968847
0.971608
0.973894
0.977276
0.978538
0.979314
0.977883
0.979091
0.978447
0.980099
0.980878
0.982992
0.983268
0.985253
0.985046
0.987383
0.986813
0.989323
0.988644
0.991802
0.991068
0.994463
0.992991
1.00066
1.00679
1.02516
1.049
1.05548
1.05173
1.04756
1.04558
1.04334
1.04243
1.04241
1.04382
1.04529
1.04701
1.04805
1.04955
1.05064
1.05205
1.05283
1.05428
1.05645
1.05859
1.05844
1.05886
1.06043
1.06264
1.06305
1.06349
1.06408
1.0656
1.06637
1.06755
1.06814
1.06935
1.0699
1.07111
1.07154
1.07275
1.07291
1.074
1.07372
1.07473
1.07391
1.07476
1.07321
1.07371
1.07148
1.06921
1.07021
1.03399
1.05108
1.04628
1.04387
1.04033
1.03428
1.04113
1.0383
1.04371
1.04574
1.04764
1.04823
1.04898
1.04835
1.04883
1.04456
1.04559
1.04483
1.04257
1.04708
1.05101
1.0542
1.05067
1.04786
1.046
1.04322
1.04148
1.03885
1.03474
1.02772
1.0421
1.06658
1.06662
1.06962
1.0716
1.07306
1.07043
1.06863
1.07159
1.06994
1.06546
1.0617
1.04982
1.0464
1.03205
1.02903
1.03518
1.04151
1.03068
1.01821
1.01618
1.01481
1.01443
1.0128
1.01099
1.00983
1.00864
1.00604
1.00588
1.00246
1.00403
1.0005
1.00238
0.998654
1.00199
0.994772
1.00172
0.998637
0.999679
0.997395
0.998154
0.998195
0.997426
0.999588
0.998585
1.00184
0.994756
1.00198
0.998639
1.00239
1.00047
1.00412
1.00244
1.00587
1.00587
1.00868
1.00965
1.01091
1.01284
1.01446
1.01484
1.01513
1.01485
1.02408
1.03559
1.03544
1.03366
1.03985
1.04027
1.03926
1.03838
1.03803
1.03774
1.03877
1.0395
1.04063
1.04184
1.04254
1.04422
1.04442
1.04552
1.04681
1.04672
1.0476
1.04828
1.04915
1.04942
1.0502
1.05069
1.0513
1.05145
1.05254
1.05265
1.0534
1.05366
1.0544
1.05447
1.05498
1.05522
1.05605
1.05632
1.05662
1.057
1.05731
1.05746
1.0577
1.05797
1.05827
1.05826
1.05846
1.05852
1.05869
1.05868
1.05892
1.05889
1.05884
1.05891
1.05876
1.05889
1.05871
1.05856
1.05865
1.05831
1.05839
1.05807
1.05779
1.05756
1.05718
1.05691
1.05662
1.05615
1.05574
1.05505
1.05448
1.05376
1.05303
1.05226
1.05146
1.05057
1.04972
1.04862
1.04761
1.04648
1.04533
1.04302
1.04044
1.03965
1.0391
1.03707
1.03478
1.03238
1.02998
1.02756
1.02517
1.02219
1.01948
1.01674
1.01422
1.011
1.00827
1.0053
1.00279
0.999672
0.997924
0.995624
0.995506
0.995802
0.994205
0.99726
0.994884
0.997233
0.997803
0.999373
1.00009
1.00139
1.00211
1.00293
1.00408
1.00509
1.00606
1.0069
1.00725
1.00835
1.00931
1.01018
1.01086
1.01182
1.01241
1.01323
1.01391
1.01513
1.01625
1.0173
1.01838
1.01966
1.02096
1.02239
1.02383
1.0255
1.02726
1.02924
1.03085
1.03291
1.03463
1.0372
1.03924
1.04215
1.04505
1.04815
1.05101
1.05425
1.05797
1.06214
1.06632
1.07019
1.07436
1.07944
1.08451
1.08923
1.09457
1.10002
1.10378
1.1054
1.10182
1.09205
1.07973
1.05077
1.02166
0.990564
0.970796
0.957874
0.932889
0.91248
0.901455
0.884818
0.870575
0.868404
0.862071
0.861896
0.859572
0.859608
0.861935
0.864788
0.867056
0.868888
0.871882
0.875078
0.879452
0.882291
0.88592
0.88877
0.892149
0.894724
0.898656
0.901075
0.904429
0.907188
0.910649
0.912513
0.916003
0.917956
0.918409
0.920694
0.924942
0.927083
0.930493
0.932608
0.936042
0.938562
0.942876
0.944585
0.946248
0.944866
0.946662
0.945837
0.947949
0.948695
0.951327
0.951683
0.954299
0.954156
0.957137
0.956568
0.9597
0.959066
0.962982
0.962125
0.966643
0.964468
0.973996
0.979356
1.0024
1.03094
1.04117
1.03905
1.03552
1.03408
1.0321
1.03143
1.03168
1.03357
1.03558
1.03794
1.03957
1.04168
1.04334
1.04534
1.04668
1.04867
1.05143
1.05427
1.05466
1.05546
1.05749
1.06028
1.06126
1.06208
1.06308
1.06497
1.0662
1.06772
1.06877
1.07024
1.07129
1.07269
1.07368
1.07497
1.0759
1.07697
1.0779
1.07851
1.07969
1.07918
1.08129
1.07862
1.08297
1.07602
1.08452
1.06817
1.06345
1.06492
1.06155
1.0683
1.05507
1.0539
1.05513
1.05759
1.06141
1.06353
1.06555
1.06741
1.06824
1.06872
1.06922
1.0694
1.07134
1.07167
1.07391
1.07367
1.07013
1.06705
1.0645
1.06423
1.06275
1.06064
1.05253
1.0455
1.04785
1.06675
1.07581
1.07231
1.07445
1.07498
1.0753
1.07446
1.07533
1.07375
1.0729
1.07419
1.07236
1.06261
1.06724
1.05665
1.03865
1.03639
1.0425
1.03686
1.02273
1.01599
1.01542
1.01447
1.01283
1.01095
1.00996
1.00872
1.00558
1.00567
1.00241
1.00412
1.00049
1.00233
0.998633
1.00166
0.995025
1.00154
0.998655
0.999607
0.997317
0.998401
0.998385
0.997373
0.999424
0.998613
1.00142
0.994854
1.00186
0.998632
1.00241
1.00046
1.0042
1.00236
1.00579
1.00576
1.00879
1.00965
1.01101
1.01286
1.01448
1.01472
1.01495
1.01602
1.01922
1.03035
1.03395
1.02999
1.0361
1.03882
1.03727
1.03692
1.04021
1.03968
1.0395
1.04034
1.04151
1.04166
1.04337
1.04379
1.04529
1.04537
1.04719
1.04679
1.04796
1.04831
1.04949
1.04961
1.05056
1.05098
1.05138
1.05185
1.05275
1.05304
1.05359
1.05405
1.05474
1.05484
1.05524
1.05566
1.05623
1.05664
1.05699
1.05728
1.05756
1.05777
1.05792
1.05821
1.05844
1.05842
1.0585
1.05864
1.0587
1.05864
1.0588
1.05867
1.05863
1.05863
1.05832
1.05846
1.05811
1.05793
1.05787
1.05743
1.05744
1.05694
1.05658
1.05622
1.05566
1.05531
1.05482
1.05422
1.05365
1.05274
1.05203
1.05107
1.05014
1.04917
1.04808
1.04696
1.04582
1.04441
1.0431
1.04158
1.04008
1.0374
1.03443
1.03328
1.0323
1.02984
1.02712
1.02424
1.02138
1.01848
1.01562
1.01218
1.00907
1.00593
1.00305
0.999485
0.996578
0.993385
0.990778
0.987588
0.985951
0.983668
0.98379
0.984142
0.982903
0.986044
0.983938
0.986568
0.987244
0.989162
0.990017
0.991584
0.992441
0.993641
0.994951
0.996302
0.997489
0.99868
0.999335
1.00071
1.00196
1.00312
1.00407
1.00535
1.00629
1.00743
1.00848
1.01003
1.01154
1.01297
1.01442
1.01605
1.01771
1.01949
1.02129
1.02329
1.02539
1.02751
1.02932
1.03149
1.03342
1.03602
1.03814
1.04101
1.04363
1.04664
1.04923
1.05254
1.05578
1.05973
1.06346
1.06747
1.07162
1.07657
1.08151
1.08722
1.09163
1.09764
1.10029
1.10239
1.09933
1.08791
1.07155
1.04444
1.01795
0.990899
0.971695
0.9598
0.937873
0.918949
0.905585
0.88869
0.874537
0.870659
0.864344
0.862657
0.856487
0.856133
0.856811
0.856746
0.857886
0.856783
0.857306
0.858302
0.860832
0.861631
0.863907
0.864936
0.867703
0.869257
0.872366
0.874034
0.876722
0.878862
0.882208
0.883845
0.887196
0.888513
0.889898
0.891533
0.895557
0.897507
0.901098
0.903167
0.906914
0.909299
0.913984
0.915844
0.918074
0.916915
0.918984
0.918415
0.920788
0.921478
0.924489
0.925012
0.927993
0.927895
0.930967
0.930811
0.934361
0.933893
0.938066
0.937674
0.942115
0.940423
0.9504
0.954058
0.98655
1.01027
1.02333
1.0227
1.02028
1.01991
1.01871
1.01868
1.01949
1.02195
1.02452
1.02744
1.0296
1.03226
1.03445
1.03694
1.0388
1.04128
1.04454
1.04782
1.04865
1.0498
1.05229
1.05547
1.05691
1.05806
1.05948
1.06164
1.06329
1.06503
1.06651
1.06816
1.06966
1.07116
1.07267
1.07394
1.0755
1.07638
1.07822
1.07846
1.08087
1.07988
1.08321
1.08049
1.08488
1.08029
1.08486
1.07975
1.0741
1.0742
1.07055
1.07074
1.06777
1.06446
1.06072
1.05949
1.06164
1.06379
1.06578
1.06767
1.06874
1.06982
1.07069
1.07203
1.07237
1.0721
1.07152
1.07077
1.06985
1.0684
1.06685
1.0665
1.06528
1.06478
1.06342
1.0643
1.06686
1.07314
1.07472
1.07299
1.07341
1.07385
1.07419
1.07401
1.07377
1.0722
1.0724
1.07596
1.07241
1.06783
1.07905
1.06865
1.04926
1.03887
1.04403
1.03998
1.02456
1.01828
1.01483
1.01403
1.01294
1.011
1.00968
1.00865
1.00607
1.00596
1.00244
1.00402
1.00045
1.00235
0.998679
1.00208
0.994696
1.00155
0.998616
0.999742
0.997383
0.998187
0.998146
0.997424
0.999444
0.99852
1.00174
0.994746
1.00204
0.998632
1.00241
1.00041
1.00409
1.00246
1.00594
1.00576
1.00873
1.00978
1.01115
1.01278
1.01434
1.01476
1.01468
1.01367
1.01834
1.02646
1.03253
1.03125
1.03431
1.03722
1.03704
1.03865
1.03766
1.03881
1.03891
1.03993
1.04015
1.04214
1.04162
1.04445
1.04346
1.04565
1.04578
1.04664
1.04695
1.04821
1.04857
1.04916
1.04954
1.05052
1.05082
1.05158
1.05199
1.05245
1.05287
1.05357
1.05408
1.05423
1.05466
1.05518
1.05573
1.05601
1.05639
1.05666
1.0569
1.05716
1.05725
1.05753
1.05776
1.05767
1.05777
1.0578
1.05789
1.05776
1.05791
1.0577
1.05759
1.05758
1.05716
1.0573
1.05681
1.05664
1.05643
1.05594
1.05589
1.05524
1.05484
1.05436
1.05369
1.05326
1.0526
1.05193
1.0512
1.05014
1.04932
1.04817
1.04709
1.04594
1.04464
1.04335
1.04195
1.04032
1.03878
1.03697
1.03521
1.03225
1.02906
1.02763
1.02629
1.02353
1.02055
1.01736
1.01422
1.01102
1.00788
1.0042
1.00091
0.997588
0.994564
0.990904
0.988017
0.98481
0.982263
0.979183
0.977761
0.975602
0.975914
0.97639
0.975366
0.978507
0.97672
0.979461
0.9803
0.982451
0.983406
0.98524
0.986317
0.987751
0.989256
0.990849
0.992271
0.993727
0.994625
0.996285
0.997799
0.999261
1.00062
1.00223
1.0035
1.00502
1.00645
1.00835
1.01021
1.01199
1.01384
1.01575
1.0176
1.01956
1.02144
1.02373
1.02577
1.0282
1.02999
1.03229
1.03433
1.03708
1.03911
1.04215
1.04496
1.0481
1.05091
1.05415
1.05764
1.06157
1.06563
1.06959
1.07367
1.07851
1.08337
1.08872
1.09267
1.09696
1.10009
1.10112
1.09756
1.08982
1.07577
1.05591
1.03287
1.00523
0.986571
0.968087
0.948827
0.9263
0.914597
0.895101
0.882532
0.874587
0.867451
0.862251
0.860782
0.855547
0.856803
0.856152
0.855158
0.85509
0.855218
0.854674
0.856149
0.856256
0.857889
0.857241
0.858641
0.858664
0.86032
0.860278
0.862139
0.862851
0.865376
0.865951
0.86859
0.86979
0.870307
0.871401
0.875403
0.87714
0.880623
0.882462
0.886296
0.888432
0.89308
0.894978
0.897395
0.896411
0.898624
0.898033
0.900534
0.901361
0.904371
0.9051
0.90813
0.908409
0.911448
0.911676
0.914993
0.915237
0.91901
0.919612
0.923068
0.923488
0.929709
0.941664
0.968622
0.99366
1.00734
1.00785
1.00639
1.00696
1.00656
1.00719
1.00854
1.01154
1.01461
1.01798
1.02059
1.0237
1.02632
1.02921
1.0315
1.03436
1.03798
1.04158
1.04279
1.04424
1.04704
1.05049
1.05232
1.05374
1.05551
1.05788
1.05986
1.06178
1.0636
1.06539
1.06724
1.06884
1.07073
1.07203
1.07398
1.07482
1.07708
1.07734
1.08007
1.07949
1.0826
1.08131
1.08417
1.08278
1.08421
1.08339
1.08038
1.08007
1.07802
1.07653
1.07413
1.07226
1.06985
1.0668
1.06471
1.06431
1.06526
1.06686
1.0679
1.06901
1.0694
1.07053
1.07132
1.0723
1.07211
1.07177
1.07145
1.07102
1.07049
1.07047
1.07035
1.07026
1.06987
1.07042
1.07173
1.07385
1.07447
1.07308
1.07329
1.07327
1.07354
1.07385
1.07366
1.07284
1.07314
1.0749
1.07295
1.07168
1.07912
1.06877
1.05842
1.04389
1.04488
1.04317
1.02792
1.01821
1.01602
1.01481
1.01286
1.01099
1.01
1.00869
1.00561
1.00574
1.00236
1.00419
1.00042
1.00235
0.99859
1.00167
0.995006
1.00157
0.998623
0.999674
0.997305
0.998416
0.998384
0.99736
0.999317
0.99847
1.00138
0.994755
1.00177
0.998606
1.00248
1.00043
1.0043
1.00242
1.0058
1.00582
1.00884
1.00948
1.01093
1.01281
1.01443
1.01475
1.01466
1.01451
1.01448
1.02145
1.0279
1.02866
1.03128
1.03545
1.03618
1.03696
1.03647
1.03878
1.03723
1.04002
1.03901
1.0413
1.04072
1.04283
1.04293
1.04431
1.04464
1.04566
1.04568
1.04684
1.0474
1.04788
1.04852
1.0493
1.04961
1.05039
1.05086
1.0513
1.05171
1.05243
1.05285
1.05316
1.05353
1.05404
1.05448
1.05483
1.05529
1.05549
1.05567
1.05592
1.05601
1.05639
1.05646
1.05635
1.05645
1.05647
1.05645
1.05638
1.05645
1.05616
1.05608
1.05598
1.05548
1.05563
1.05499
1.05484
1.05449
1.05398
1.05384
1.05305
1.05265
1.05203
1.05126
1.05076
1.04993
1.04921
1.04832
1.04714
1.04621
1.04486
1.04367
1.04235
1.04084
1.0394
1.03777
1.03595
1.03419
1.03214
1.03018
1.027
1.02362
1.02196
1.02034
1.01738
1.01422
1.0108
1.00751
1.00413
1.00085
0.997074
0.993756
0.99041
0.987391
0.983789
0.981056
0.977931
0.975562
0.972661
0.971445
0.969438
0.969995
0.970597
0.969913
0.973096
0.971623
0.97447
0.975445
0.977825
0.97889
0.980885
0.982106
0.983857
0.98542
0.987445
0.989021
0.990812
0.992019
0.993857
0.995679
0.997334
0.998829
1.00071
1.00209
1.00379
1.00533
1.00733
1.00915
1.01097
1.01277
1.01477
1.0166
1.01863
1.02043
1.02264
1.02473
1.02707
1.02894
1.03119
1.0332
1.03592
1.0382
1.04117
1.04362
1.04688
1.04958
1.0532
1.05646
1.06032
1.06386
1.0684
1.07242
1.07737
1.08191
1.08775
1.09161
1.09593
1.09861
1.09965
1.09574
1.08715
1.0726
1.05338
1.03078
1.00568
0.987208
0.971597
0.952269
0.931951
0.918878
0.899948
0.887008
0.880517
0.873423
0.868913
0.863705
0.860111
0.861481
0.859001
0.860684
0.859365
0.859438
0.858355
0.8598
0.859418
0.86099
0.860062
0.861091
0.860478
0.861664
0.860728
0.861716
0.861322
0.863144
0.862083
0.86353
0.862912
0.863007
0.862403
0.864976
0.865435
0.867864
0.868668
0.871856
0.873291
0.877413
0.878944
0.881132
0.880136
0.882119
0.881435
0.883876
0.884637
0.887535
0.888353
0.891274
0.891829
0.894524
0.895223
0.898308
0.899009
0.90233
0.903708
0.906653
0.907578
0.913865
0.92642
0.953178
0.979911
0.991358
0.992911
0.992205
0.993607
0.993969
0.995267
0.997175
1.00071
1.00429
1.00811
1.01115
1.01468
1.01773
1.021
1.0237
1.02693
1.0309
1.0348
1.03636
1.03808
1.04119
1.04489
1.04706
1.04874
1.05085
1.05343
1.05573
1.05783
1.05996
1.06191
1.06409
1.06582
1.06801
1.06943
1.07164
1.07261
1.07499
1.07557
1.07813
1.07836
1.08079
1.08098
1.08266
1.08308
1.08369
1.08369
1.0827
1.08264
1.08195
1.08123
1.07961
1.0779
1.07629
1.07433
1.07188
1.06952
1.06785
1.06801
1.06814
1.06902
1.06857
1.06873
1.06956
1.07059
1.07119
1.07144
1.0717
1.07211
1.07164
1.07208
1.07222
1.07247
1.07247
1.07253
1.07319
1.07403
1.07411
1.07351
1.07358
1.0727
1.07328
1.074
1.07398
1.07281
1.07321
1.07393
1.07395
1.07299
1.07636
1.06577
1.06181
1.0508
1.04623
1.04502
1.03071
1.02097
1.0154
1.01388
1.01307
1.011
1.00966
1.0087
1.00605
1.00586
1.00251
1.00415
1.00034
1.00234
0.998685
1.00194
0.99483
1.00163
0.998652
0.999797
0.99737
0.998238
0.998105
0.997449
0.999459
0.99837
1.00187
0.99473
1.00205
0.998656
1.00238
1.0004
1.00417
1.00246
1.00586
1.00582
1.00875
1.00969
1.0112
1.01284
1.01449
1.01467
1.01455
1.01375
1.01543
1.01802
1.02408
1.02786
1.0288
1.03431
1.03307
1.03458
1.03518
1.03551
1.0365
1.03719
1.03814
1.03899
1.03947
1.04084
1.0415
1.04185
1.04341
1.04339
1.04437
1.04512
1.04585
1.04598
1.04681
1.04732
1.04819
1.04871
1.0492
1.04954
1.0501
1.05073
1.05124
1.05144
1.05195
1.05248
1.0528
1.05317
1.05362
1.05384
1.05396
1.05421
1.05436
1.0547
1.05464
1.05458
1.05467
1.05468
1.05471
1.05449
1.05449
1.0542
1.05412
1.05396
1.0534
1.05349
1.05278
1.05265
1.05213
1.05164
1.05138
1.05048
1.05008
1.0493
1.04846
1.04788
1.04691
1.04613
1.04508
1.04381
1.04276
1.04124
1.03994
1.03844
1.03677
1.03519
1.03334
1.03137
1.02944
1.02718
1.02508
1.02171
1.01823
1.0164
1.01455
1.01148
1.00823
1.0047
1.00136
0.997912
0.994633
0.990891
0.987668
0.984424
0.981514
0.978113
0.97559
0.972648
0.970491
0.967876
0.966931
0.965123
0.965908
0.966699
0.96617
0.969536
0.968345
0.971386
0.97267
0.975226
0.976601
0.979035
0.980668
0.982559
0.98457
0.986609
0.988573
0.990523
0.991878
0.99392
0.995763
0.997439
0.999112
1.00098
1.00251
1.00412
1.00571
1.00772
1.00971
1.01143
1.01332
1.01517
1.01706
1.01905
1.02092
1.02329
1.02527
1.0277
1.02959
1.0319
1.03398
1.03678
1.03887
1.04196
1.04451
1.04759
1.05035
1.05391
1.05723
1.06154
1.06473
1.06935
1.07286
1.07823
1.08179
1.08787
1.09117
1.09537
1.09754
1.0982
1.09372
1.08822
1.07577
1.05994
1.03854
1.01682
0.996705
0.979157
0.959579
0.938954
0.926754
0.907896
0.893118
0.884657
0.874883
0.869768
0.865769
0.861184
0.859893
0.85942
0.85897
0.857543
0.857886
0.856993
0.858448
0.857768
0.859018
0.858576
0.859655
0.859232
0.860226
0.859483
0.860554
0.859968
0.861245
0.86078
0.861526
0.861177
0.86005
0.859692
0.861268
0.861247
0.862634
0.862411
0.864794
0.865226
0.868166
0.868916
0.870232
0.868707
0.869949
0.868913
0.87071
0.871507
0.874
0.874982
0.877514
0.878187
0.880419
0.881433
0.884142
0.885202
0.88797
0.889687
0.892446
0.893465
0.899558
0.912296
0.939012
0.966223
0.976961
0.978682
0.978352
0.980262
0.981266
0.983142
0.985533
0.989564
0.99364
0.997871
1.0013
1.00524
1.0087
1.01232
1.01542
1.019
1.02329
1.02748
1.0294
1.03139
1.03476
1.03868
1.04119
1.04314
1.04557
1.04836
1.05097
1.05326
1.05569
1.05781
1.06026
1.06218
1.06462
1.06624
1.06862
1.06985
1.07219
1.07322
1.07548
1.07644
1.07839
1.07946
1.0808
1.08182
1.08272
1.08287
1.08278
1.08338
1.0832
1.08312
1.08254
1.08158
1.08051
1.07942
1.07799
1.0763
1.07377
1.07246
1.07098
1.07097
1.07063
1.06996
1.0694
1.06886
1.06887
1.06917
1.06989
1.07105
1.07149
1.07178
1.07211
1.07269
1.07293
1.07346
1.07332
1.0735
1.07349
1.07345
1.0738
1.07252
1.07323
1.07374
1.07399
1.07246
1.07409
1.0736
1.07451
1.0737
1.07491
1.06491
1.06335
1.0586
1.05286
1.04815
1.03451
1.02159
1.01739
1.01469
1.01272
1.01102
1.00969
1.00867
1.00597
1.00567
1.00235
1.00414
1.00038
1.00241
0.99861
1.00166
0.995049
1.00154
0.998628
0.999672
0.997278
0.998427
0.998389
0.997372
0.99931
0.998326
1.00131
0.994598
1.00173
0.998603
1.00237
1.00041
1.00435
1.00243
1.00574
1.00576
1.00889
1.00955
1.01113
1.01257
1.01449
1.01467
1.01454
1.01377
1.01292
1.01556
1.01851
1.02525
1.02554
1.03028
1.03093
1.03208
1.03333
1.03386
1.03479
1.03519
1.03641
1.03662
1.03808
1.03825
1.03975
1.03985
1.04116
1.04146
1.04244
1.04254
1.04385
1.04383
1.04473
1.04518
1.04625
1.04653
1.04727
1.04744
1.04813
1.0485
1.04917
1.04939
1.04997
1.05039
1.05072
1.05114
1.05149
1.05179
1.05183
1.05214
1.05226
1.05263
1.05249
1.05239
1.05256
1.05248
1.05245
1.05228
1.05223
1.05189
1.05179
1.05153
1.05095
1.05103
1.05019
1.05007
1.04943
1.04895
1.04854
1.04759
1.04719
1.04623
1.04535
1.04468
1.04359
1.04275
1.04154
1.0402
1.03903
1.03735
1.03598
1.0343
1.0325
1.0308
1.02877
1.0267
1.02461
1.02221
1.02001
1.01651
1.01301
1.01109
1.00909
1.00602
1.00275
0.999227
0.995948
0.992553
0.989387
0.98581
0.982777
0.979713
0.976988
0.973859
0.971594
0.968875
0.967003
0.964698
0.964
0.962575
0.963555
0.964634
0.964393
0.967971
0.967137
0.970403
0.97174
0.974531
0.975901
0.978499
0.980071
0.982227
0.983963
0.986411
0.988026
0.990139
0.991515
0.993475
0.995338
0.997137
0.998621
1.00054
1.002
1.00383
1.00509
1.00726
1.0091
1.01106
1.01287
1.01491
1.01654
1.01885
1.02027
1.0227
1.02461
1.02727
1.02893
1.0317
1.03327
1.0365
1.03834
1.04182
1.04388
1.04755
1.0496
1.05382
1.05625
1.06108
1.0637
1.069
1.07204
1.07756
1.08108
1.08636
1.09047
1.09394
1.09612
1.0967
1.09184
1.08463
1.07286
1.05764
1.03837
1.01741
0.997726
0.982551
0.962825
0.946039
0.929517
0.914374
0.897564
0.891267
0.88001
0.877277
0.869404
0.868694
0.86421
0.864982
0.863247
0.863307
0.861177
0.86251
0.861399
0.862753
0.862031
0.862525
0.863158
0.862329
0.86326
0.863197
0.862901
0.863973
0.86352
0.863785
0.863849
0.86407
0.862706
0.86187
0.863134
0.863134
0.864084
0.864127
0.865308
0.865897
0.867962
0.868242
0.868551
0.866565
0.866522
0.86454
0.8651
0.865056
0.866185
0.866715
0.867974
0.868626
0.869926
0.870909
0.872669
0.874163
0.876053
0.87814
0.8804
0.881515
0.887247
0.899969
0.926434
0.953362
0.963584
0.965417
0.965196
0.967445
0.968841
0.971159
0.973934
0.978331
0.982825
0.987431
0.991184
0.995467
0.999299
1.00325
1.00671
1.01063
1.01522
1.01968
1.02195
1.02419
1.02783
1.03195
1.03476
1.03695
1.03969
1.0427
1.04561
1.04811
1.05081
1.05313
1.05583
1.05797
1.06061
1.06248
1.06498
1.06653
1.06882
1.07027
1.07234
1.07378
1.07558
1.07699
1.07848
1.07961
1.08085
1.08126
1.08152
1.08243
1.08288
1.08333
1.08324
1.08335
1.08264
1.08241
1.08134
1.08097
1.07935
1.07799
1.07603
1.07486
1.07422
1.07345
1.07253
1.07161
1.07054
1.07
1.06932
1.06924
1.06926
1.06943
1.07051
1.07189
1.07276
1.07332
1.07396
1.07388
1.07388
1.07417
1.07401
1.07242
1.07297
1.07358
1.07334
1.07315
1.07393
1.07377
1.07473
1.07446
1.07462
1.06693
1.06576
1.0666
1.06252
1.05348
1.03822
1.02454
1.01726
1.01445
1.01343
1.01125
1.00935
1.00879
1.00618
1.00596
1.00258
1.00413
1.00022
1.0023
0.99873
1.00189
0.994759
1.00145
0.998543
0.999793
0.997323
0.998213
0.998085
0.997394
0.999225
0.99822
1.00161
0.994824
1.00206
0.99869
1.00234
1.00036
1.00428
1.00253
1.00574
1.00577
1.00888
1.00959
1.01135
1.01296
1.01442
1.0146
1.01458
1.014
1.01389
1.01405
1.01496
1.02079
1.02453
1.0269
1.02861
1.02891
1.03058
1.03034
1.03267
1.03184
1.03398
1.03368
1.03526
1.03565
1.03726
1.03716
1.03858
1.03905
1.03969
1.0404
1.04126
1.04119
1.04233
1.0426
1.04361
1.04399
1.04485
1.04505
1.04576
1.04597
1.04656
1.0471
1.04755
1.04799
1.04809
1.04869
1.04889
1.04951
1.04931
1.04974
1.04978
1.05013
1.04986
1.04994
1.05005
1.05
1.0499
1.04966
1.04955
1.04924
1.04915
1.04878
1.04818
1.04819
1.04729
1.04721
1.04641
1.04595
1.04539
1.04441
1.044
1.04287
1.04196
1.0412
1.04001
1.03912
1.03776
1.03639
1.03509
1.03329
1.03186
1.03001
1.02812
1.02632
1.02415
1.02204
1.01982
1.01738
1.01513
1.01158
1.00818
1.00623
1.00415
1.00118
0.998016
0.994611
0.991504
0.988251
0.985301
0.982023
0.979288
0.976603
0.974249
0.971687
0.969554
0.967493
0.965605
0.964514
0.963156
0.963216
0.9626
0.965594
0.963398
0.96889
0.966121
0.971422
0.971254
0.975512
0.97521
0.979539
0.979584
0.98312
0.983601
0.987232
0.987744
0.991079
0.99089
0.994409
0.994597
0.997779
0.998239
1.00134
1.00159
1.00464
1.00484
1.00807
1.00849
1.01159
1.01219
1.01551
1.01617
1.01957
1.02021
1.02368
1.02423
1.02801
1.02838
1.03224
1.03293
1.03703
1.03808
1.04243
1.04374
1.04823
1.0499
1.0545
1.05652
1.06139
1.0639
1.0691
1.07256
1.07731
1.08124
1.08576
1.0896
1.09284
1.09476
1.09514
1.09018
1.08528
1.07509
1.06177
1.0441
1.02453
1.00612
0.98829
0.969585
0.951204
0.937053
0.919299
0.904188
0.892993
0.882938
0.876781
0.871773
0.866691
0.865506
0.862609
0.862192
0.860497
0.861028
0.859898
0.860578
0.859987
0.861412
0.860722
0.862028
0.86103
0.862129
0.861049
0.862071
0.861648
0.862372
0.862227
0.862719
0.862307
0.861753
0.861108
0.862067
0.861864
0.862907
0.862977
0.864356
0.865006
0.866898
0.86781
0.867037
0.866167
0.864925
0.863762
0.862724
0.863516
0.863021
0.863814
0.863405
0.864215
0.863708
0.865039
0.865052
0.867064
0.866897
0.870168
0.870246
0.873441
0.877466
0.889304
0.915425
0.942456
0.951624
0.953493
0.953305
0.955576
0.95724
0.959807
0.962753
0.967383
0.972169
0.977026
0.981022
0.985566
0.989714
0.993942
0.997717
1.00192
1.00677
1.01147
1.01408
1.01658
1.02044
1.02473
1.02783
1.03025
1.03328
1.03651
1.03969
1.0424
1.04535
1.04789
1.05081
1.05318
1.05601
1.05816
1.06076
1.06266
1.06495
1.06673
1.06876
1.07046
1.07232
1.07388
1.07554
1.07686
1.07822
1.07902
1.07952
1.08079
1.08135
1.0822
1.08248
1.08301
1.08293
1.08324
1.08285
1.0827
1.08235
1.0816
1.08065
1.07939
1.07824
1.07747
1.07656
1.07581
1.07478
1.07369
1.0727
1.07201
1.0711
1.07057
1.07027
1.07028
1.07009
1.06988
1.07044
1.07064
1.07189
1.07301
1.07402
1.07285
1.07371
1.07347
1.07287
1.07253
1.07344
1.07366
1.07504
1.07488
1.07609
1.07038
1.07021
1.07317
1.07156
1.06067
1.0431
1.02642
1.01846
1.01481
1.01175
1.01103
1.00983
1.00868
1.00603
1.00572
1.00219
1.00415
1.00035
1.0023
0.99864
1.00158
0.994933
1.00156
0.99862
0.999645
0.997257
0.998386
0.998343
0.997356
0.999189
0.998182
1.00123
0.994552
1.00168
0.998606
1.00234
1.00034
1.00443
1.00252
1.00571
1.00577
1.00887
1.00965
1.01115
1.01249
1.0146
1.01451
1.01456
1.01387
1.01339
1.01313
1.01267
1.01538
1.02075
1.02202
1.02526
1.02553
1.02769
1.0281
1.02907
1.02954
1.03042
1.03164
1.03234
1.03335
1.03375
1.03513
1.03534
1.03647
1.0368
1.03748
1.03812
1.03877
1.03914
1.04006
1.04062
1.04139
1.04187
1.0424
1.04265
1.04311
1.04369
1.04458
1.04445
1.04536
1.04502
1.04609
1.04596
1.04684
1.04645
1.04707
1.0469
1.04729
1.04696
1.04717
1.04723
1.04715
1.047
1.04674
1.04666
1.04629
1.04616
1.04571
1.04512
1.04508
1.04413
1.04404
1.0431
1.04267
1.04197
1.041
1.04056
1.03926
1.03835
1.03752
1.03624
1.0353
1.03382
1.03244
1.03101
1.02912
1.02765
1.02567
1.02375
1.02189
1.01963
1.01754
1.01526
1.01285
1.01062
1.00711
1.00392
1.00201
0.999965
0.997202
0.994238
0.991149
0.988367
0.985564
0.983003
0.9803
0.97787
0.975504
0.97336
0.971196
0.969229
0.967467
0.965654
0.964617
0.963157
0.963072
0.962818
0.965719
0.964007
0.969055
0.966537
0.97138
0.97123
0.97567
0.97546
0.97976
0.979701
0.983386
0.983537
0.98724
0.987614
0.99119
0.991099
0.994464
0.994826
0.997725
0.998087
1.00123
1.00158
1.00461
1.00487
1.0082
1.00884
1.01174
1.01236
1.01533
1.016
1.01929
1.02004
1.02343
1.02448
1.02813
1.02881
1.0322
1.03311
1.0367
1.03819
1.04203
1.04392
1.04773
1.05002
1.05429
1.057
1.06092
1.06386
1.06776
1.07198
1.07621
1.08028
1.08459
1.08836
1.09156
1.09335
1.09353
1.08841
1.0819
1.07211
1.05976
1.0427
1.02488
1.006
0.990615
0.973224
0.955586
0.941071
0.924765
0.908118
0.899892
0.888358
0.884755
0.875483
0.874568
0.869394
0.868587
0.867948
0.865279
0.865727
0.864492
0.864899
0.864182
0.86422
0.865673
0.864366
0.865495
0.864423
0.865085
0.864586
0.864311
0.865442
0.86516
0.865082
0.865952
0.863469
0.863971
0.864025
0.86391
0.865073
0.865479
0.866032
0.867588
0.8691
0.869596
0.868729
0.868081
0.866866
0.866052
0.864818
0.865037
0.864613
0.865355
0.864704
0.865308
0.864567
0.865343
0.864877
0.865836
0.865735
0.86766
0.867126
0.868677
0.87199
0.882136
0.906908
0.934067
0.942316
0.943824
0.943278
0.945481
0.947008
0.949597
0.952546
0.957175
0.962056
0.967057
0.971146
0.975822
0.980172
0.984592
0.988608
0.993039
0.998073
1.00298
1.00591
1.00863
1.01269
1.01713
1.02046
1.0231
1.02637
1.02981
1.03324
1.03619
1.03935
1.04212
1.04524
1.04786
1.05084
1.05327
1.05599
1.0582
1.06059
1.06263
1.06475
1.0666
1.06857
1.07026
1.072
1.0735
1.07496
1.07599
1.07675
1.0781
1.07901
1.0802
1.08069
1.08164
1.08193
1.08252
1.08276
1.08308
1.08301
1.0831
1.08268
1.08239
1.08156
1.08081
1.08004
1.07942
1.07873
1.07794
1.07716
1.0764
1.07525
1.07455
1.07356
1.07298
1.07252
1.07212
1.0715
1.07084
1.07053
1.07043
1.07077
1.07014
1.07122
1.06954
1.0716
1.0714
1.07269
1.07307
1.07496
1.07588
1.07703
1.07408
1.07399
1.07809
1.07786
1.06654
1.04829
1.03036
1.01888
1.01524
1.01449
1.01118
1.00956
1.00847
1.00617
1.00598
1.00254
1.00409
1.00004
1.00233
0.998746
1.00185
0.994698
1.00148
0.998592
0.999848
0.997277
0.998158
0.998067
0.997383
0.999243
0.998214
1.00145
0.994766
1.00203
0.998657
1.00237
1.00028
1.00429
1.0026
1.00577
1.00571
1.00891
1.00959
1.0112
1.01264
1.01471
1.01436
1.01458
1.01403
1.01331
1.01278
1.01184
1.01176
1.01629
1.01914
1.01973
1.02216
1.02295
1.02449
1.02476
1.02624
1.02655
1.02873
1.02858
1.03021
1.0303
1.03217
1.03166
1.0334
1.0332
1.03423
1.03483
1.03528
1.03632
1.03699
1.03732
1.03795
1.03852
1.03923
1.03931
1.03996
1.0405
1.04155
1.04104
1.04237
1.0417
1.04307
1.04278
1.04378
1.04332
1.04404
1.04364
1.04407
1.04391
1.04409
1.04419
1.04384
1.04387
1.04348
1.04353
1.04306
1.04287
1.04237
1.04182
1.0417
1.04073
1.04063
1.03956
1.03915
1.03834
1.03741
1.03691
1.03545
1.03459
1.0337
1.03235
1.03135
1.02979
1.02842
1.02689
1.02497
1.02348
1.0214
1.01952
1.01761
1.01534
1.01332
1.01103
1.00874
1.00661
1.00335
1.00054
0.998877
0.99705
0.994913
0.992332
0.989617
0.987092
0.98461
0.982294
0.979814
0.977653
0.975438
0.973322
0.971091
0.969282
0.967399
0.96569
0.964751
0.96345
0.963144
0.962852
0.965524
0.96405
0.969076
0.966928
0.971393
0.971483
0.975315
0.975379
0.979504
0.980094
0.983187
0.984194
0.987044
0.987759
0.990909
0.991111
0.994331
0.995162
0.997661
0.998449
1.00103
1.00154
1.00435
1.00496
1.0079
1.009
1.01164
1.01273
1.01538
1.01647
1.01916
1.02017
1.02312
1.02431
1.0277
1.02912
1.03223
1.03384
1.03689
1.03864
1.042
1.04416
1.04782
1.05006
1.05405
1.05741
1.06138
1.06461
1.06835
1.07182
1.07645
1.07977
1.0838
1.08737
1.09023
1.09189
1.09193
1.08675
1.08202
1.07396
1.06158
1.04778
1.03022
1.01303
0.997301
0.978648
0.96126
0.946584
0.93093
0.913066
0.904244
0.890222
0.885396
0.878149
0.873625
0.87015
0.868269
0.86501
0.86421
0.864615
0.862435
0.863467
0.862544
0.863323
0.863542
0.86244
0.864033
0.86305
0.8639
0.863291
0.863426
0.864019
0.863437
0.864303
0.864233
0.862836
0.862799
0.862457
0.863171
0.864087
0.864066
0.865275
0.866715
0.867416
0.868766
0.868046
0.867373
0.866021
0.865077
0.863733
0.864067
0.863724
0.864509
0.863912
0.864571
0.863933
0.864595
0.863984
0.865
0.864865
0.866535
0.866496