/*--------------------------------*- C++ -*----------------------------------*\
| =========                 |                                                 |
| \\      /  F ield         | OpenFOAM: The Open Source CFD Toolbox           |
|  \\    /   O peration     | Version:  v2006                                 |
|   \\  /    A nd           | Website:  www.openfoam.com                      |
|    \\/     M anipulation  |                                                 |
\*---------------------------------------------------------------------------*/
FoamFile
{
    version     2.0;
    format      ascii;
    class       volVectorField;
    location    "75";
    object      U;
}
// * * * * * * * * * * * * * * * * * * * * * * * * * * * * * * * * * * * * * //

dimensions      [0 1 -1 0 0 0 0];


internalField   nonuniform List<vector> 
93840
(
(0.859233 0.0520459 3.58018e-17)
(0.864844 0.0501189 1.82585e-16)
(0.8639 0.0526566 4.46498e-16)
(0.863823 0.0492704 -1.10921e-16)
(0.865121 0.0478654 1.31909e-16)
(0.860994 0.0355782 -2.24933e-16)
(0.868467 0.0397234 -2.52121e-16)
(0.857861 0.0395622 1.97747e-16)
(0.864288 0.0282791 -5.37863e-17)
(0.852714 0.0379687 -1.28857e-16)
(0.857091 0.0252967 -6.23105e-17)
(0.850404 0.0329583 7.73691e-18)
(0.847757 0.0211119 2.01117e-16)
(0.841649 0.0277867 9.91174e-17)
(0.834787 0.0146262 1.26059e-16)
(0.822543 0.0227792 4.21273e-17)
(0.814596 0.0134089 8.05923e-17)
(0.803007 0.0229564 1.07118e-17)
(0.798661 0.0175451 7.48216e-17)
(0.793982 0.025661 3.00096e-17)
(0.792656 0.024754 4.33997e-17)
(0.774541 0.029996 4.33522e-17)
(0.727426 0.0198191 4.6343e-17)
(0.637617 0.0213059 5.38009e-17)
(0.618368 0.0426805 5.0966e-17)
(0.628153 0.027382 5.12391e-17)
(0.633016 -0.0185613 5.29956e-17)
(0.598205 -0.0128879 4.83657e-17)
(0.585087 0.0180215 4.83136e-17)
(0.572826 -0.0139457 4.53257e-17)
(0.515391 -0.00497615 4.52631e-17)
(0.501595 0.00449251 4.36677e-17)
(0.483966 -0.0199279 4.36942e-17)
(0.516884 -0.0270304 4.3408e-17)
(0.457885 -0.0235606 4.36996e-17)
(0.490899 -0.027526 4.30261e-17)
(0.445205 -0.0224087 4.36767e-17)
(0.472886 -0.0265694 4.27992e-17)
(0.435638 -0.0203239 4.34536e-17)
(0.454858 -0.023832 4.25428e-17)
(0.429806 -0.0177915 4.3291e-17)
(0.439503 -0.020206 4.23518e-17)
(0.421798 -0.0164597 4.30358e-17)
(0.427999 -0.0167667 4.23276e-17)
(0.415781 -0.0148671 4.25196e-17)
(0.416971 -0.0145679 4.21922e-17)
(0.406339 -0.0126745 4.21435e-17)
(0.407343 -0.0113192 4.19405e-17)
(0.399596 -0.0107176 4.18224e-17)
(0.398544 -0.00934894 4.17228e-17)
(0.390662 -0.0082372 4.13015e-17)
(0.390599 -0.00659008 4.1308e-17)
(0.38248 -0.00615557 4.09915e-17)
(0.381223 -0.00408461 4.0748e-17)
(0.373432 -0.00138981 4.05223e-17)
(0.378113 -0.000245853 4.01986e-17)
(0.370559 0.000235281 4.00163e-17)
(0.372064 0.000361247 3.96593e-17)
(0.361937 0.00140684 3.93652e-17)
(0.363436 0.00354959 3.89546e-17)
(0.356631 0.00523929 3.86446e-17)
(0.35754 0.00583612 3.81923e-17)
(0.351648 0.00809664 3.78484e-17)
(0.351749 0.00996829 3.74853e-17)
(0.350356 0.0112126 3.70273e-17)
(0.347577 0.0126142 3.65655e-17)
(0.347574 0.0144818 3.606e-17)
(0.346701 0.0157621 3.56795e-17)
(0.346756 0.0169804 3.51601e-17)
(0.3459 0.0186453 3.49328e-17)
(0.345712 0.0197228 3.42547e-17)
(0.346589 0.0212518 3.413e-17)
(0.345564 0.0228799 3.34958e-17)
(0.348698 0.0243565 3.31464e-17)
(0.347482 0.0255612 3.14865e-17)
(0.350201 0.0272396 3.06621e-17)
(0.350837 0.0285296 3.06922e-17)
(0.352467 0.0301124 2.98294e-17)
(0.355065 0.031738 2.90422e-17)
(0.356553 0.0328402 2.79479e-17)
(0.359198 0.03435 2.66689e-17)
(0.360602 0.0357318 2.6284e-17)
(0.363216 0.0374868 2.5373e-17)
(0.366231 0.0392221 2.48364e-17)
(0.369429 0.0405917 2.31966e-17)
(0.372976 0.0421991 2.32754e-17)
(0.376161 0.0436218 2.22319e-17)
(0.379432 0.0450079 2.09255e-17)
(0.38268 0.0465671 2.05957e-17)
(0.385767 0.0483509 1.95245e-17)
(0.390702 0.0504266 2.11309e-17)
(0.395795 0.0520591 1.9169e-17)
(0.400937 0.0536743 1.85003e-17)
(0.40681 0.0553599 1.73591e-17)
(0.412248 0.0569794 1.86882e-17)
(0.418895 0.058687 1.76341e-17)
(0.425332 0.0600861 1.90148e-17)
(0.43194 0.0616113 1.48578e-17)
(0.439238 0.0631804 1.54768e-17)
(0.446968 0.0648275 1.63405e-17)
(0.455229 0.0661142 1.17934e-17)
(0.463385 0.0674146 1.22939e-17)
(0.471105 0.0694803 1.33432e-17)
(0.486925 0.0732274 7.1571e-18)
(0.50506 0.0728405 7.71078e-18)
(0.510901 0.0696035 1.57771e-19)
(0.513642 0.0702235 6.08461e-18)
(0.525497 0.0733047 -8.96924e-19)
(0.539816 0.0740099 8.29088e-18)
(0.55416 0.0743519 8.84034e-19)
(0.568578 0.0739811 6.84273e-18)
(0.58278 0.0733927 -1.41511e-18)
(0.596552 0.0724785 4.72961e-18)
(0.613024 0.0720091 -1.1593e-18)
(0.628113 0.0695875 6.20814e-18)
(0.643128 0.0669622 3.48359e-18)
(0.65675 0.0635198 5.27964e-18)
(0.673017 0.0607429 4.70765e-18)
(0.686916 0.0553252 6.69577e-18)
(0.701605 0.0507525 6.19724e-18)
(0.714123 0.0441639 7.93677e-18)
(0.728684 0.0393854 9.43371e-18)
(0.737445 0.0302092 1.05833e-17)
(0.748665 0.0243275 1.11846e-17)
(0.74997 0.0135429 1.28824e-17)
(0.749297 0.00799675 1.26253e-17)
(0.756812 -0.000812743 1.46148e-17)
(0.745743 -0.00711762 1.44731e-17)
(0.753955 -0.0120755 1.64376e-17)
(0.748142 -0.0200483 1.64696e-17)
(0.743792 -0.0247788 1.83706e-17)
(0.739847 -0.0307995 1.84051e-17)
(0.735355 -0.034429 2.02401e-17)
(0.732552 -0.0387467 1.98148e-17)
(0.729164 -0.0429066 2.21233e-17)
(0.727044 -0.0480866 2.09077e-17)
(0.72176 -0.0508563 2.35008e-17)
(0.719186 -0.0550258 2.31838e-17)
(0.715066 -0.0572511 2.48576e-17)
(0.713307 -0.0612116 2.44718e-17)
(0.711925 -0.0640099 2.62184e-17)
(0.709725 -0.0687187 2.55669e-17)
(0.705491 -0.0714474 2.77899e-17)
(0.703802 -0.0746909 3.00706e-17)
(0.701282 -0.0774765 3.14996e-17)
(0.699449 -0.0814525 3.33823e-17)
(0.697593 -0.0846465 3.63209e-17)
(0.696633 -0.0889317 3.79296e-17)
(0.693702 -0.0928803 4.04977e-17)
(0.690624 -0.0969518 4.31981e-17)
(0.686452 -0.10007 4.44431e-17)
(0.683822 -0.10464 4.74036e-17)
(0.679712 -0.108032 4.81382e-17)
(0.675698 -0.113084 5.0606e-17)
(0.670971 -0.116573 5.15143e-17)
(0.666781 -0.121717 5.28774e-17)
(0.6615 -0.125232 5.36909e-17)
(0.655884 -0.130355 5.54065e-17)
(0.648323 -0.134261 5.5337e-17)
(0.641365 -0.138165 5.77119e-17)
(0.635547 -0.141768 5.85645e-17)
(0.63021 -0.147382 6.14559e-17)
(0.622793 -0.152755 6.21221e-17)
(0.614047 -0.158593 6.45404e-17)
(0.604218 -0.164097 6.51745e-17)
(0.593241 -0.169832 6.77194e-17)
(0.580173 -0.175244 6.90079e-17)
(0.567753 -0.179936 7.22661e-17)
(0.554713 -0.186122 7.22462e-17)
(0.54006 -0.192722 7.57924e-17)
(0.519788 -0.199144 7.65227e-17)
(0.497726 -0.203324 7.94295e-17)
(0.474184 -0.205869 7.99211e-17)
(0.451092 -0.208885 8.24528e-17)
(0.419207 -0.214442 8.51073e-17)
(0.384752 -0.217044 8.67618e-17)
(0.34438 -0.214268 8.94106e-17)
(0.290902 -0.201268 9.04293e-17)
(0.232327 -0.179327 9.08669e-17)
(0.169711 -0.14274 9.12298e-17)
(0.112939 -0.10203 9.14698e-17)
(0.0164458 0.027754 6.87266e-17)
(0.00314944 0.135545 9.93624e-17)
(-0.00106298 0.36862 1.15954e-16)
(0.0979566 0.496384 1.18464e-16)
(0.209649 0.68088 1.18466e-16)
(0.422761 0.736244 1.17799e-16)
(0.585382 0.756917 1.17074e-16)
(0.712464 0.695105 1.15565e-16)
(0.759145 0.666888 1.14762e-16)
(0.862672 0.65627 1.13541e-16)
(0.95166 0.62795 1.12373e-16)
(1.00834 0.583246 1.11067e-16)
(1.06822 0.553453 1.0994e-16)
(1.1133 0.516777 1.08483e-16)
(1.12295 0.477847 1.0767e-16)
(1.14328 0.448572 1.06445e-16)
(1.14739 0.422645 1.05973e-16)
(1.15938 0.397499 1.04732e-16)
(1.16047 0.370005 1.03723e-16)
(1.1534 0.353283 1.0311e-16)
(1.15047 0.335579 1.01763e-16)
(1.14517 0.31838 1.01344e-16)
(1.14265 0.30494 1.00192e-16)
(1.13834 0.289228 9.99204e-17)
(1.13276 0.276048 9.76418e-17)
(1.12495 0.26342 9.74061e-17)
(1.12025 0.251955 9.59866e-17)
(1.11188 0.240561 9.5913e-17)
(1.10718 0.230449 9.36376e-17)
(1.09977 0.219803 9.28209e-17)
(1.09577 0.210527 9.03177e-17)
(1.0883 0.20054 8.96166e-17)
(1.08454 0.192155 8.71029e-17)
(1.07548 0.182555 8.58971e-17)
(1.07067 0.175008 8.35915e-17)
(1.06149 0.166571 8.29441e-17)
(1.05776 0.159267 8.02219e-17)
(1.04894 0.152574 7.92293e-17)
(1.04684 0.143954 7.64643e-17)
(1.04523 0.136119 7.53852e-17)
(1.03998 0.128836 7.20258e-17)
(1.02794 0.122026 7.06852e-17)
(1.02198 0.116517 6.76776e-17)
(1.01106 0.110413 6.64082e-17)
(1.00477 0.10585 6.40002e-17)
(0.993333 0.100604 6.22233e-17)
(0.987024 0.0961099 5.9286e-17)
(0.973396 0.0909875 5.82085e-17)
(0.96853 0.0869813 5.55065e-17)
(0.963643 0.0826303 5.39309e-17)
(0.969373 0.0762608 5.12137e-17)
(0.962941 0.0704043 5.09471e-17)
(0.967306 0.0641997 4.91577e-17)
(0.958185 0.058874 4.86319e-17)
(0.956675 0.0546114 4.60229e-17)
(0.946349 0.0499981 4.54283e-17)
(0.946019 0.046232 4.35015e-17)
(0.935906 0.0425713 4.26955e-17)
(0.937731 0.0382864 4.15095e-17)
(0.926468 0.0340384 4.04022e-17)
(0.928772 0.0296495 3.82607e-17)
(0.916498 0.0255762 3.66136e-17)
(0.91966 0.0205794 3.52872e-17)
(0.905076 0.0166681 3.3657e-17)
(0.907406 0.0117478 3.2197e-17)
(0.892493 0.00876007 3.07411e-17)
(0.896557 0.00187053 2.94956e-17)
(0.864594 0.000306898 2.83127e-17)
(0.835335 -0.00142976 2.71131e-17)
(0.749388 -0.00663285 2.61589e-17)
(0.615118 -0.00924884 2.45598e-17)
(0.56333 -0.0124929 2.30422e-17)
(0.579983 -0.0161342 2.14085e-17)
(0.598726 -0.0204895 1.9778e-17)
(0.606414 -0.0235146 1.80905e-17)
(0.614772 -0.0274376 1.64634e-17)
(0.617113 -0.0314783 1.44891e-17)
(0.613115 -0.0352942 1.33338e-17)
(0.602522 -0.0378186 1.04155e-17)
(0.589839 -0.0406075 9.42535e-18)
(0.576858 -0.042586 7.34955e-18)
(0.566019 -0.0448769 7.0612e-18)
(0.554325 -0.04664 5.20007e-18)
(0.54287 -0.0484572 5.24838e-18)
(0.530938 -0.0495327 2.55281e-18)
(0.521037 -0.051166 3.09022e-18)
(0.508103 -0.0539078 6.19652e-19)
(0.48724 -0.0549367 1.63866e-18)
(0.46893 -0.0514602 -8.25135e-22)
(0.465807 -0.0501676 1.86733e-19)
(0.461056 -0.0532847 -9.03226e-19)
(0.443858 -0.0556574 4.04533e-19)
(0.423624 -0.0530057 -8.2458e-19)
(0.414991 -0.0504422 -1.71366e-19)
(0.40963 -0.0510196 -2.39881e-19)
(0.398449 -0.0525483 1.78848e-18)
(0.382745 -0.0521385 1.01435e-18)
(0.369349 -0.0507641 2.71939e-18)
(0.35701 -0.0497923 3.99783e-18)
(0.344644 -0.0489346 6.4332e-18)
(0.331572 -0.0479645 8.80178e-18)
(0.318642 -0.0468422 1.05438e-17)
(0.304828 -0.0455375 1.07394e-17)
(0.291324 -0.044165 1.31647e-17)
(0.276305 -0.0422059 1.20691e-17)
(0.262673 -0.040482 1.347e-17)
(0.245837 -0.0382365 1.31208e-17)
(0.230935 -0.0363106 1.67566e-17)
(0.211947 -0.0335607 1.61677e-17)
(0.196067 -0.0313506 1.91284e-17)
(0.175579 -0.0280461 1.95616e-17)
(0.158525 -0.0255175 1.765e-17)
(0.136129 -0.0215856 2.1923e-17)
(0.11799 -0.0183217 2.31687e-17)
(0.0884135 -0.0135234 2.26206e-17)
(0.0731072 -0.00594512 2.89629e-17)
(-0.00392491 0.00787074 2.17421e-17)
(-0.0429529 0.00554456 2.27974e-17)
(-0.0390405 0.00113541 2.22093e-17)
(-0.0295714 0.000971394 1.88756e-17)
(-0.0197565 6.82866e-05 1.94778e-17)
(-0.0135043 0.00132111 1.9099e-17)
(-0.0129107 0.00308474 3.48781e-17)
(-0.0139419 0.00278494 2.68072e-17)
(-0.0162469 0.00250565 3.40241e-17)
(-0.0190319 0.00332581 4.40075e-17)
(-0.0203635 0.0036354 2.91152e-17)
(-0.0212874 0.00424773 3.43733e-17)
(-0.0210399 0.00381367 3.20356e-17)
(-0.0185971 0.00338899 3.69984e-17)
(-0.0170253 0.00185544 3.15204e-17)
(-0.0100018 0.00144945 4.18206e-17)
(-0.00878162 0.00209072 4.24453e-17)
(-0.00743344 0.00111194 3.74775e-17)
(-0.00437922 0.00115829 4.93122e-17)
(-0.00484003 0.0016205 1.55649e-17)
(-0.00347287 0.00056238 2.78147e-17)
(-0.00134902 0.000408147 2.38315e-17)
(0.0023972 -0.000120749 5.8806e-17)
(0.0040325 3.76306e-05 6.17555e-18)
(0.00403856 -0.000734405 1.49194e-17)
(0.00411825 -0.000371416 3.48434e-17)
(0.00366382 0.000125953 3.36636e-17)
(0.00370903 -0.000401916 4.08811e-17)
(0.00287113 0.000233502 3.62359e-17)
(0.00146843 0.000137312 2.41658e-17)
(-0.00340117 0.00085709 2.3312e-17)
(-0.00880202 0.00238769 3.84581e-17)
(-0.0143992 0.00287179 3.89109e-17)
(-0.0136974 0.000843597 3.92365e-17)
(-0.0131448 0.00163088 3.99931e-17)
(-0.00541802 -0.0041305 4.44571e-17)
(0.00542643 -0.017709 4.20213e-17)
(0.0510174 -0.0404873 4.26978e-17)
(0.0656219 -0.0714921 4.37523e-17)
(0.12975 0.033186 3.99558e-17)
(0.198873 0.0137459 4.69528e-17)
(0.30846 0.00434737 4.20105e-17)
(0.425617 0.0337143 4.62164e-17)
(0.451278 0.00440349 4.44542e-17)
(0.604379 -0.0105788 4.82967e-17)
(0.645658 0.0391957 5.2108e-17)
(0.619802 0.0431759 5.16125e-17)
(0.614734 0.0224353 5.44434e-17)
(0.717684 0.0198266 5.00017e-17)
(0.776332 0.028196 3.70484e-17)
(0.789661 0.0241361 4.52424e-17)
(0.793845 0.0254673 2.84949e-17)
(0.798791 0.0182678 6.57377e-17)
(0.803367 0.0225783 3.33468e-17)
(0.81385 0.0135506 1.05614e-16)
(0.822161 0.022581 -3.39165e-17)
(0.835059 0.0147664 2.18491e-16)
(0.841436 0.0277988 -1.89318e-16)
(0.847824 0.0212635 3.07766e-16)
(0.850513 0.0331663 4.05948e-17)
(0.856806 0.0251758 7.67347e-17)
(0.853033 0.0381193 -4.60428e-17)
(0.864047 0.0282107 2.22642e-18)
(0.857818 0.0395622 6.57421e-17)
(0.868579 0.0395263 -5.14914e-16)
(0.861644 0.0356098 7.41881e-17)
(0.864615 0.0480387 -4.12516e-16)
(0.863953 0.0492705 1.54659e-16)
(0.864037 0.0524045 -5.97016e-17)
(0.865133 0.0501073 2.93248e-17)
(0.859328 0.052406 -4.97857e-17)
(0.859244 0.0523928 3.00957e-17)
(0.865074 0.0501783 4.96189e-17)
(0.864049 0.0523887 -1.20233e-16)
(0.863892 0.0492993 5.55754e-17)
(0.864512 0.0480247 -3.77879e-16)
(0.861757 0.0355646 1.79139e-16)
(0.868526 0.039555 -5.98189e-16)
(0.85785 0.0395604 2.42077e-17)
(0.864046 0.0282182 1.34561e-17)
(0.852939 0.0381218 -3.32315e-18)
(0.856571 0.0252128 1.03606e-16)
(0.85057 0.0331867 -5.08899e-17)
(0.847839 0.0212518 1.4913e-16)
(0.841669 0.027804 -5.59316e-17)
(0.834674 0.0148504 1.28883e-16)
(0.823081 0.0225755 1.32674e-17)
(0.815563 0.0132545 9.47969e-17)
(0.802995 0.0228065 3.1226e-17)
(0.798883 0.0182735 6.69994e-17)
(0.794367 0.0256602 3.23154e-17)
(0.793284 0.0244635 4.2465e-17)
(0.793687 0.0284925 3.5935e-17)
(0.755502 0.0224495 4.56203e-17)
(0.670912 0.0231397 5.20457e-17)
(0.647457 0.0406113 5.17837e-17)
(0.653906 0.0332869 4.90884e-17)
(0.590987 -0.00440962 5.29364e-17)
(0.580827 -0.00372893 5.02221e-17)
(0.576232 0.0130144 5.05953e-17)
(0.566844 -0.00857195 4.95056e-17)
(0.561652 -0.00341649 4.91673e-17)
(0.549693 -0.0144738 4.86291e-17)
(0.551712 -0.00251293 4.81736e-17)
(0.534732 -0.0213062 4.84542e-17)
(0.533954 -0.0144863 4.78034e-17)
(0.519218 -0.0224737 4.8162e-17)
(0.516566 -0.0171673 4.76722e-17)
(0.508439 -0.0212008 4.78419e-17)
(0.502332 -0.0179751 4.75056e-17)
(0.496307 -0.0188433 4.74409e-17)
(0.49157 -0.0164343 4.7416e-17)
(0.484647 -0.0170177 4.69987e-17)
(0.479191 -0.014266 4.71652e-17)
(0.476299 -0.0147693 4.67061e-17)
(0.470358 -0.0131255 4.67148e-17)
(0.466562 -0.0128185 4.64021e-17)
(0.460188 -0.010917 4.63055e-17)
(0.457559 -0.0103576 4.61014e-17)
(0.45181 -0.00846355 4.58538e-17)
(0.449385 -0.00818989 4.56613e-17)
(0.44318 -0.0063973 4.52963e-17)
(0.440755 -0.0056233 4.52248e-17)
(0.434768 -0.00420088 4.48082e-17)
(0.432482 -0.00277012 4.45836e-17)
(0.42627 -0.00013727 4.42312e-17)
(0.428276 0.00106227 4.39627e-17)
(0.4216 0.0016476 4.36029e-17)
(0.421918 0.00215523 4.32502e-17)
(0.413932 0.00311515 4.28285e-17)
(0.413993 0.00555165 4.24529e-17)
(0.408228 0.00711131 4.20583e-17)
(0.408225 0.00757357 4.15605e-17)
(0.403421 0.0103652 4.11454e-17)
(0.403046 0.0116384 4.05767e-17)
(0.401676 0.0136117 4.00955e-17)
(0.399059 0.0146914 3.96308e-17)
(0.399363 0.0168657 3.89855e-17)
(0.39827 0.0182458 3.83901e-17)
(0.398688 0.0194846 3.77862e-17)
(0.397748 0.0214154 3.72633e-17)
(0.398086 0.0226235 3.62719e-17)
(0.398808 0.024452 3.55307e-17)
(0.398277 0.0261296 3.50178e-17)
(0.401458 0.0277074 3.39264e-17)
(0.400343 0.0292064 3.36549e-17)
(0.403601 0.0309144 3.2861e-17)
(0.404188 0.0326077 3.1704e-17)
(0.406308 0.0341998 3.09977e-17)
(0.409144 0.0360378 3.06314e-17)
(0.410718 0.0374841 2.9495e-17)
(0.414004 0.0390847 2.89554e-17)
(0.415578 0.0408075 2.80593e-17)
(0.418808 0.0426242 2.74619e-17)
(0.422141 0.0446548 2.586e-17)
(0.425691 0.0462309 2.56354e-17)
(0.429844 0.0480299 2.46703e-17)
(0.433352 0.0497598 2.41089e-17)
(0.437255 0.0513218 2.37728e-17)
(0.441166 0.0531577 2.30742e-17)
(0.444921 0.0551019 2.2651e-17)
(0.450608 0.0573958 2.22029e-17)
(0.456294 0.0592638 1.97224e-17)
(0.462201 0.061111 2.14269e-17)
(0.468895 0.0630779 1.99585e-17)
(0.475096 0.0649237 2.08899e-17)
(0.482666 0.0668348 1.8953e-17)
(0.489934 0.068476 1.8352e-17)
(0.497555 0.0701942 1.75979e-17)
(0.505911 0.0718968 1.61505e-17)
(0.514669 0.0737089 1.28753e-17)
(0.524053 0.0751533 1.37875e-17)
(0.533545 0.0766519 1.19203e-17)
(0.542836 0.0787312 6.67381e-18)
(0.559696 0.0825027 6.45986e-18)
(0.577903 0.0823517 5.11751e-18)
(0.584846 0.0792722 4.36185e-18)
(0.58972 0.0799265 6.02295e-18)
(0.603109 0.0828301 3.0355e-18)
(0.61852 0.0834868 5.03531e-18)
(0.634115 0.0837451 1.17821e-18)
(0.649727 0.0832509 5.5064e-18)
(0.66517 0.0825112 5.6013e-19)
(0.680245 0.0812662 5.25029e-18)
(0.697739 0.0806408 1.62189e-18)
(0.713625 0.0776884 6.35853e-18)
(0.729573 0.0747109 3.82813e-18)
(0.744095 0.0707298 7.37616e-18)
(0.760969 0.0673738 6.51432e-18)
(0.775192 0.0613612 8.85966e-18)
(0.790354 0.0559143 8.65e-18)
(0.802974 0.0487821 1.15468e-17)
(0.817387 0.0429705 1.02232e-17)
(0.825567 0.0336044 1.32108e-17)
(0.836261 0.0269822 1.28076e-17)
(0.836691 0.01543 1.51341e-17)
(0.836215 0.00973381 1.51055e-17)
(0.842501 0.000330855 1.71727e-17)
(0.831515 -0.00776611 1.71661e-17)
(0.839064 -0.0123613 1.92959e-17)
(0.831895 -0.0221478 1.93948e-17)
(0.827714 -0.0264806 2.13794e-17)
(0.822819 -0.0335524 2.12804e-17)
(0.818266 -0.037479 2.31555e-17)
(0.814693 -0.0430243 2.30753e-17)
(0.810707 -0.0473228 2.50702e-17)
(0.807922 -0.0526186 2.53413e-17)
(0.802223 -0.0564222 2.71825e-17)
(0.799207 -0.0597199 2.70217e-17)
(0.794539 -0.0638467 2.91319e-17)
(0.792311 -0.0665463 2.88816e-17)
(0.790019 -0.0712712 3.10345e-17)
(0.787231 -0.0748581 3.17709e-17)
(0.782502 -0.0790184 3.42418e-17)
(0.780295 -0.0818662 3.51552e-17)
(0.776925 -0.0859384 3.79697e-17)
(0.774528 -0.0889278 3.94487e-17)
(0.771763 -0.0931065 4.29033e-17)
(0.7699 -0.0973436 4.43667e-17)
(0.765891 -0.10203 4.82938e-17)
(0.762156 -0.105698 4.96007e-17)
(0.75688 -0.110042 5.35039e-17)
(0.753452 -0.113829 5.44257e-17)
(0.747959 -0.118708 5.73758e-17)
(0.743189 -0.122501 5.81423e-17)
(0.737237 -0.12729 6.02284e-17)
(0.732221 -0.131397 6.17171e-17)
(0.725237 -0.136428 6.35094e-17)
(0.718398 -0.140541 6.48734e-17)
(0.709497 -0.14511 6.68349e-17)
(0.701467 -0.14841 6.79802e-17)
(0.693474 -0.152591 7.05982e-17)
(0.685808 -0.157235 7.30745e-17)
(0.675497 -0.162708 7.59323e-17)
(0.664123 -0.167212 7.79226e-17)
(0.651196 -0.172251 8.06392e-17)
(0.637075 -0.177213 8.29868e-17)
(0.621065 -0.181161 8.5983e-17)
(0.604764 -0.184717 8.7279e-17)
(0.587353 -0.187743 9.12072e-17)
(0.567762 -0.192816 9.05294e-17)
(0.543481 -0.195715 9.52739e-17)
(0.516957 -0.197523 9.51576e-17)
(0.488018 -0.196796 9.86603e-17)
(0.459615 -0.197929 9.78907e-17)
(0.424924 -0.196945 9.97924e-17)
(0.385543 -0.192148 1.00565e-16)
(0.338925 -0.184561 1.01547e-16)
(0.291455 -0.172718 1.01103e-16)
(0.240116 -0.146929 1.02544e-16)
(0.182099 -0.104914 1.00383e-16)
(0.129261 -0.0446231 1.02687e-16)
(0.0749783 0.0491879 9.27433e-17)
(0.0625901 0.174021 1.31496e-16)
(0.0549242 0.297445 1.39933e-16)
(0.141142 0.395946 1.37215e-16)
(0.265447 0.552652 1.3429e-16)
(0.438122 0.62509 1.31205e-16)
(0.592349 0.666763 1.28287e-16)
(0.719005 0.649792 1.27888e-16)
(0.786559 0.638217 1.27619e-16)
(0.887398 0.641725 1.26808e-16)
(0.978546 0.622187 1.25328e-16)
(1.0386 0.586558 1.25723e-16)
(1.10596 0.564042 1.25191e-16)
(1.16384 0.533635 1.24836e-16)
(1.18719 0.499424 1.23126e-16)
(1.21534 0.476248 1.22635e-16)
(1.23058 0.445153 1.2122e-16)
(1.24469 0.426192 1.21128e-16)
(1.25281 0.405771 1.19682e-16)
(1.25385 0.382247 1.19212e-16)
(1.25392 0.366305 1.168e-16)
(1.25193 0.348491 1.16214e-16)
(1.25198 0.332736 1.14351e-16)
(1.24847 0.317684 1.13184e-16)
(1.24521 0.305268 1.10444e-16)
(1.2382 0.292762 1.09485e-16)
(1.2345 0.280488 1.07915e-16)
(1.22634 0.26841 1.07062e-16)
(1.22207 0.257426 1.04777e-16)
(1.2144 0.245536 1.03497e-16)
(1.21096 0.235217 1.0124e-16)
(1.20354 0.224485 9.98235e-17)
(1.20044 0.21478 9.73236e-17)
(1.19122 0.204631 9.557e-17)
(1.18727 0.195869 9.31252e-17)
(1.17782 0.187722 9.15281e-17)
(1.1746 0.179734 8.88932e-17)
(1.16589 0.170494 8.75412e-17)
(1.1632 0.163973 8.48329e-17)
(1.16129 0.154002 8.34456e-17)
(1.15745 0.145185 8.04098e-17)
(1.14592 0.137919 7.88752e-17)
(1.14053 0.13142 7.60241e-17)
(1.1295 0.125205 7.45165e-17)
(1.12366 0.120154 7.0707e-17)
(1.11189 0.114096 6.97646e-17)
(1.10605 0.109161 6.5785e-17)
(1.09217 0.103527 6.43204e-17)
(1.08716 0.0987437 6.10295e-17)
(1.08057 0.0936062 6.03191e-17)
(1.08575 0.0864624 5.74566e-17)
(1.07884 0.0798538 5.67595e-17)
(1.08318 0.0734585 5.47455e-17)
(1.07435 0.0668055 5.33731e-17)
(1.07308 0.0622731 5.19842e-17)
(1.06265 0.057381 5.07814e-17)
(1.06236 0.053082 4.90636e-17)
(1.05193 0.0485399 4.79282e-17)
(1.05351 0.0438683 4.64647e-17)
(1.04207 0.0391217 4.47372e-17)
(1.04418 0.0340152 4.3391e-17)
(1.03155 0.0293813 4.15842e-17)
(1.03476 0.0240957 3.99237e-17)
(1.01958 0.0194772 3.79279e-17)
(1.02255 0.0141696 3.64289e-17)
(1.00551 0.0103064 3.46736e-17)
(1.01229 0.00281261 3.32965e-17)
(0.977529 0.00274099 3.17058e-17)
(0.955923 0.000500217 3.05797e-17)
(0.866665 -0.00277462 2.90432e-17)
(0.736209 -0.00228087 2.7439e-17)
(0.677518 -0.0131573 2.60069e-17)
(0.684901 -0.0209471 2.41753e-17)
(0.69818 -0.0255179 2.24568e-17)
(0.7025 -0.0283174 2.07184e-17)
(0.708369 -0.0325296 1.86659e-17)
(0.709126 -0.0364058 1.71429e-17)
(0.704215 -0.0403252 1.46627e-17)
(0.692741 -0.0429433 1.35274e-17)
(0.679077 -0.0458273 1.1532e-17)
(0.664792 -0.048297 9.89728e-18)
(0.652579 -0.0509588 7.56142e-18)
(0.639538 -0.0530058 5.47007e-18)
(0.626788 -0.0550827 3.95247e-18)
(0.613458 -0.0563494 3.15009e-18)
(0.602033 -0.0582065 1.24447e-18)
(0.587933 -0.0608662 6.83864e-19)
(0.566596 -0.0619663 -1.33632e-19)
(0.546933 -0.0587788 -1.48343e-18)
(0.541159 -0.057948 -1.19715e-18)
(0.534728 -0.0608047 -1.61233e-18)
(0.517183 -0.0627691 -9.28986e-19)
(0.496288 -0.0604078 -1.01751e-18)
(0.485563 -0.0581426 9.96828e-19)
(0.478321 -0.0586175 -7.36405e-19)
(0.466106 -0.0598113 1.5144e-19)
(0.449702 -0.0592528 1.38983e-18)
(0.435083 -0.0578749 2.77287e-18)
(0.421463 -0.0568602 4.68893e-18)
(0.407821 -0.0558679 4.91916e-18)
(0.393656 -0.0547788 5.8442e-18)
(0.379533 -0.0534987 8.84963e-18)
(0.364656 -0.0521151 9.74199e-18)
(0.350062 -0.0504832 1.09024e-17)
(0.334017 -0.0483713 1.29832e-17)
(0.3198 -0.0462284 1.40922e-17)
(0.301866 -0.0436851 1.44238e-17)
(0.286901 -0.0413416 1.55261e-17)
(0.266468 -0.0383449 1.66938e-17)
(0.251428 -0.0358566 1.87251e-17)
(0.228586 -0.0323405 1.788e-17)
(0.21519 -0.0298797 2.18111e-17)
(0.189678 -0.0258389 2.03671e-17)
(0.179597 -0.0231198 2.65626e-17)
(0.150836 -0.0185777 2.17912e-17)
(0.142151 -0.0120025 3.00655e-17)
(0.119421 -0.00356648 2.23632e-17)
(0.0924505 -0.00678233 2.98966e-17)
(0.0642853 -0.00896836 2.23365e-17)
(0.0393394 -0.00691706 3.3773e-17)
(0.019352 -0.00395871 2.7276e-17)
(0.00126185 -0.000930119 2.40296e-17)
(-0.00587989 0.000485256 2.93178e-17)
(-0.00896362 0.00240266 3.8701e-17)
(-0.0115347 0.00404328 3.97865e-17)
(-0.0130526 0.00373131 2.74618e-17)
(-0.0155794 0.00378135 3.04586e-17)
(-0.0180716 0.00382883 3.66692e-17)
(-0.0199622 0.00294259 3.61433e-17)
(-0.0198992 0.00248254 3.45811e-17)
(-0.0197262 0.00180603 3.62336e-17)
(-0.0189575 0.0010638 3.23068e-17)
(-0.0162334 0.00156882 3.39981e-17)
(-0.0152437 0.00130229 3.20671e-17)
(-0.0126968 0.00112122 3.31198e-17)
(-0.0120461 0.00077798 3.50111e-17)
(-0.0103296 0.000378933 3.63716e-17)
(-0.0095756 -0.000690059 2.52176e-17)
(-0.00769767 -0.00140382 3.37865e-17)
(-0.0050383 -0.000308375 2.80164e-17)
(-0.00399645 0.000274215 3.3036e-17)
(-0.00220183 -0.000376897 2.97917e-17)
(-0.00141119 -0.000331886 2.96989e-17)
(-0.000270181 -8.01448e-05 4.05827e-17)
(-0.0016754 0.000579832 2.96656e-17)
(-0.00373001 0.00457542 2.76344e-17)
(-0.0104707 0.0085421 3.7681e-17)
(-0.0131342 0.0101909 4.449e-17)
(-0.0190078 0.00631195 4.02115e-17)
(-0.0188925 0.002107 4.25306e-17)
(-0.0221202 -0.0033314 4.14836e-17)
(-0.0188777 -0.00894106 4.27794e-17)
(-0.0226315 -0.0199797 4.35158e-17)
(-0.00448223 -0.0304383 4.40005e-17)
(-0.0227368 -0.0413187 4.37116e-17)
(-0.00340338 -0.00268745 4.31694e-17)
(0.0443916 -0.026373 4.68006e-17)
(0.0858786 -0.0348209 3.92614e-17)
(0.198902 0.0362951 5.00885e-17)
(0.234053 0.00187335 4.21295e-17)
(0.413158 -0.014492 4.64573e-17)
(0.569331 0.0420657 4.78134e-17)
(0.594326 0.0481748 5.18218e-17)
(0.589877 0.0197933 5.17558e-17)
(0.676049 0.0176419 5.62323e-17)
(0.754224 0.029954 4.30329e-17)
(0.787568 0.0249407 4.75884e-17)
(0.792051 0.0255508 2.8989e-17)
(0.79809 0.0176906 8.34948e-17)
(0.803569 0.022474 1.54517e-17)
(0.813633 0.0135415 7.97524e-17)
(0.821839 0.0227291 8.29807e-17)
(0.834964 0.0145029 7.63663e-17)
(0.841953 0.0277264 2.16504e-16)
(0.847899 0.0209556 1.70413e-16)
(0.850459 0.0328978 3.75284e-17)
(0.857245 0.0252433 -6.12254e-18)
(0.852773 0.0379664 -7.64234e-17)
(0.863992 0.0283794 -1.17549e-16)
(0.85773 0.0395665 1.81844e-17)
(0.86855 0.0397157 -3.76617e-16)
(0.860326 0.0357327 -4.81537e-16)
(0.864847 0.0478878 -7.67081e-17)
(0.863821 0.0493213 -1.28968e-16)
(0.863902 0.0526875 3.97393e-16)
(0.864816 0.050054 2.09039e-16)
(0.859143 0.0521009 1.22719e-16)
(0.859196 0.0519579 7.13079e-17)
(0.864841 0.0501996 1.93189e-16)
(0.863949 0.0525421 2.98253e-16)
(0.86381 0.0493348 -7.11991e-17)
(0.865017 0.047868 -2.16109e-17)
(0.860974 0.0355594 -1.28626e-16)
(0.86831 0.0397485 -3.05653e-16)
(0.857903 0.0395856 -1.76669e-17)
(0.864275 0.0281851 3.05028e-17)
(0.852563 0.0380482 -1.40269e-16)
(0.856777 0.0252274 -1.18096e-16)
(0.850501 0.0330227 3.32477e-17)
(0.847691 0.0211256 2.01803e-16)
(0.841443 0.0278446 6.99247e-17)
(0.835164 0.0146032 1.44491e-16)
(0.822811 0.0229622 5.25598e-17)
(0.814881 0.013732 5.59944e-17)
(0.803018 0.02328 2.83897e-17)
(0.799292 0.0178161 6.40822e-17)
(0.794278 0.0255276 3.18858e-17)
(0.793848 0.0248103 4.39152e-17)
(0.787582 0.0297571 3.92626e-17)
(0.776709 0.0218888 4.05845e-17)
(0.707259 0.0227 4.71319e-17)
(0.669062 0.0366378 5.20208e-17)
(0.694663 0.0259095 4.81591e-17)
(0.646923 -0.00445518 5.20922e-17)
(0.608071 -0.00130582 5.04551e-17)
(0.614277 0.0149925 5.07819e-17)
(0.594154 -0.00575318 5.05125e-17)
(0.587394 0.00297616 5.03421e-17)
(0.580355 -0.00530888 5.02339e-17)
(0.580298 -0.0114509 4.958e-17)
(0.571888 -0.0144447 5.00282e-17)
(0.564692 -0.014428 4.94853e-17)
(0.559978 -0.0189625 4.9631e-17)
(0.550527 -0.014828 4.93579e-17)
(0.548327 -0.0193781 4.9243e-17)
(0.539602 -0.0151474 4.9103e-17)
(0.535371 -0.0182072 4.89034e-17)
(0.529646 -0.0142841 4.87992e-17)
(0.524726 -0.0164422 4.85954e-17)
(0.517962 -0.0131615 4.84635e-17)
(0.515259 -0.0137864 4.82504e-17)
(0.510145 -0.0122366 4.8046e-17)
(0.505612 -0.0118613 4.78951e-17)
(0.500509 -0.0103487 4.75815e-17)
(0.496563 -0.00896253 4.74886e-17)
(0.492763 -0.00776488 4.70311e-17)
(0.488261 -0.00704534 4.69859e-17)
(0.483935 -0.00600208 4.65072e-17)
(0.4798 -0.00447376 4.64627e-17)
(0.47592 -0.00336021 4.58234e-17)
(0.471933 -0.00115352 4.58024e-17)
(0.467451 0.000166533 4.52258e-17)
(0.467567 0.00181243 4.50478e-17)
(0.462313 0.00260226 4.44927e-17)
(0.461656 0.00334658 4.42456e-17)
(0.455117 0.00464422 4.36838e-17)
(0.454035 0.00668489 4.33527e-17)
(0.449336 0.00852437 4.27898e-17)
(0.448663 0.00908841 4.2409e-17)
(0.444605 0.0118848 4.17597e-17)
(0.444042 0.0131113 4.13383e-17)
(0.442761 0.0153399 4.06511e-17)
(0.440381 0.0165923 4.01645e-17)
(0.440892 0.0186409 3.9508e-17)
(0.439717 0.0202022 3.89147e-17)
(0.440385 0.0216815 3.80511e-17)
(0.439649 0.0236768 3.76662e-17)
(0.440245 0.0248783 3.6699e-17)
(0.440704 0.0270305 3.61247e-17)
(0.440822 0.0286679 3.52796e-17)
(0.44368 0.0304483 3.45815e-17)
(0.443012 0.0321783 3.42331e-17)
(0.446442 0.0339072 3.31817e-17)
(0.447035 0.0359226 3.25654e-17)
(0.449594 0.0374628 3.18157e-17)
(0.45245 0.0396225 3.07377e-17)
(0.454313 0.0411022 3.01598e-17)
(0.457964 0.0429828 2.93358e-17)
(0.459671 0.0447855 2.86734e-17)
(0.463417 0.0468234 2.80867e-17)
(0.466915 0.0489863 2.67638e-17)
(0.470842 0.050689 2.65182e-17)
(0.475457 0.052763 2.56637e-17)
(0.479293 0.0546239 2.60252e-17)
(0.483793 0.0563923 2.51334e-17)
(0.488231 0.058466 2.43943e-17)
(0.492569 0.0605892 2.41032e-17)
(0.498857 0.0630311 2.3151e-17)
(0.505059 0.0651137 2.41109e-17)
(0.511698 0.0671206 2.3008e-17)
(0.519047 0.0692655 2.18676e-17)
(0.525964 0.0712674 2.05715e-17)
(0.534309 0.0733465 1.99551e-17)
(0.542356 0.0751669 1.77975e-17)
(0.550842 0.0770481 1.82117e-17)
(0.560063 0.0789618 1.46236e-17)
(0.569676 0.0809736 1.28482e-17)
(0.580015 0.0825577 1.13327e-17)
(0.590477 0.0842633 9.56872e-18)
(0.600805 0.0863262 9.62893e-18)
(0.618141 0.0899909 8.38901e-18)
(0.636561 0.0898433 6.95028e-18)
(0.644806 0.0870146 6.99546e-18)
(0.651219 0.0876321 5.5613e-18)
(0.665396 0.0905862 5.48527e-18)
(0.681451 0.091106 3.5123e-18)
(0.697787 0.091321 2.57675e-18)
(0.714021 0.0906398 4.62318e-18)
(0.730134 0.0897376 2.28856e-18)
(0.745756 0.088243 4.72038e-18)
(0.763555 0.0872891 3.80561e-18)
(0.779561 0.0840543 5.35071e-18)
(0.795787 0.0806418 5.87671e-18)
(0.81034 0.0761305 8.29918e-18)
(0.826977 0.0724075 7.73597e-18)
(0.840782 0.0655962 1.12629e-17)
(0.855606 0.05978 9.97373e-18)
(0.867524 0.0515918 1.30931e-17)
(0.881073 0.0457681 1.2789e-17)
(0.888348 0.0348396 1.54915e-17)
(0.898203 0.0280071 1.54733e-17)
(0.89783 0.0156136 1.77736e-17)
(0.897268 0.00872869 1.78943e-17)
(0.901946 -0.00129266 2.00558e-17)
(0.89142 -0.00890882 2.02083e-17)
(0.89755 -0.0150623 2.24307e-17)
(0.889988 -0.0240054 2.28487e-17)
(0.88549 -0.0297365 2.52147e-17)
(0.879827 -0.036772 2.50115e-17)
(0.874974 -0.0411115 2.70746e-17)
(0.870522 -0.0464209 2.73787e-17)
(0.866032 -0.0512145 2.92488e-17)
(0.862318 -0.0570485 2.96463e-17)
(0.856281 -0.0605021 3.14506e-17)
(0.8522 -0.0653987 3.15712e-17)
(0.846976 -0.0681178 3.35681e-17)
(0.843561 -0.072822 3.44266e-17)