/*--------------------------------*- C++ -*----------------------------------*\
| =========                 |                                                 |
| \\      /  F ield         | OpenFOAM: The Open Source CFD Toolbox           |
|  \\    /   O peration     | Version:  v2006                                 |
|   \\  /    A nd           | Website:  www.openfoam.com                      |
|    \\/     M anipulation  |                                                 |
\*---------------------------------------------------------------------------*/
FoamFile
{
    version     2.0;
    format      ascii;
    class       volScalarField;
    location    "100";
    object      alphat;
}
// * * * * * * * * * * * * * * * * * * * * * * * * * * * * * * * * * * * * * //

dimensions      [1 -1 -1 0 0 0 0];


internalField   nonuniform List<scalar> 
93840
(
2.88496e-08
2.86726e-08
2.94491e-08
2.82299e-08
2.9578e-08
2.89547e-08
2.91257e-08
2.97122e-08
2.99192e-08
2.95194e-08
3.02851e-08
3.04744e-08
3.0551e-08
3.09409e-08
2.99182e-08
2.68371e-08
1.73726e-08
8.88934e-09
8.40843e-09
1.26005e-08
1.19779e-07
1.51619e-06
5.81287e-06
1.28098e-05
1.64089e-05
1.59722e-05
1.42456e-05
1.46773e-05
1.43932e-05
1.4269e-05
1.32073e-05
1.27688e-05
1.27712e-05
1.23512e-05
1.23363e-05
1.22991e-05
1.20482e-05
1.21645e-05
1.1849e-05
1.20056e-05
1.16967e-05
1.18362e-05
1.15599e-05
1.16712e-05
1.14347e-05
1.14987e-05
1.13045e-05
1.13375e-05
1.11809e-05
1.11837e-05
1.10548e-05
1.1046e-05
1.09158e-05
1.08833e-05
1.08209e-05
1.08157e-05
1.07348e-05
1.06872e-05
1.05827e-05
1.05526e-05
1.05033e-05
1.04585e-05
1.03988e-05
1.04171e-05
1.03787e-05
1.03904e-05
1.03724e-05
1.04038e-05
1.03939e-05
1.04174e-05
1.04365e-05
1.04586e-05
1.04963e-05
1.05399e-05
1.05787e-05
1.06324e-05
1.06747e-05
1.07407e-05
1.08007e-05
1.08718e-05
1.09183e-05
1.09825e-05
1.10353e-05
1.11145e-05
1.11902e-05
1.12574e-05
1.1329e-05
1.14031e-05
1.14647e-05
1.15368e-05
1.16291e-05
1.17292e-05
1.18239e-05
1.19245e-05
1.20256e-05
1.21452e-05
1.22551e-05
1.23702e-05
1.24836e-05
1.2616e-05
1.27517e-05
1.28753e-05
1.30093e-05
1.32749e-05
1.35261e-05
1.35806e-05
1.36186e-05
1.3807e-05
1.40028e-05
1.41906e-05
1.43813e-05
1.4568e-05
1.47536e-05
1.49763e-05
1.51793e-05
1.53791e-05
1.55692e-05
1.57838e-05
1.5967e-05
1.61597e-05
1.63268e-05
1.65111e-05
1.6641e-05
1.67814e-05
1.68479e-05
1.69222e-05
1.70088e-05
1.70078e-05
1.71165e-05
1.71634e-05
1.71196e-05
1.72145e-05
1.7177e-05
1.72728e-05
1.72656e-05
1.73259e-05
1.72963e-05
1.73746e-05
1.73706e-05
1.74338e-05
1.74828e-05
1.74993e-05
1.75372e-05
1.75494e-05
1.76201e-05
1.76206e-05
1.76976e-05
1.77183e-05
1.77473e-05
1.77532e-05
1.77684e-05
1.77735e-05
1.77714e-05
1.77643e-05
1.77394e-05
1.77131e-05
1.76671e-05
1.76158e-05
1.75355e-05
1.74662e-05
1.73998e-05
1.73148e-05
1.71886e-05
1.70215e-05
1.68215e-05
1.6597e-05
1.63385e-05
1.59574e-05
1.51729e-05
1.33281e-05
9.79181e-06
6.92511e-06
1.06362e-05
1.22094e-05
4.21967e-06
1.52682e-09
5.96713e-07
1.67019e-06
4.06494e-07
4.14432e-08
5.53452e-07
4.5206e-08
6.39189e-08
8.84216e-08
6.93003e-07
8.54056e-07
2.45982e-07
1.23383e-08
3.61035e-06
1.1725e-05
6.11328e-06
1.03111e-06
9.18925e-06
1.55333e-05
1.73084e-05
1.7988e-05
1.82234e-05
1.87779e-05
1.87615e-05
1.89012e-05
1.88489e-05
1.8734e-05
1.86142e-05
1.85712e-05
1.84547e-05
1.82802e-05
1.81479e-05
1.80508e-05
1.79334e-05
1.78052e-05
1.76609e-05
1.75174e-05
1.73603e-05
1.72445e-05
1.71352e-05
1.7025e-05
1.68861e-05
1.67434e-05
1.66204e-05
1.65034e-05
1.62997e-05
1.62223e-05
1.60753e-05
1.59728e-05
1.58636e-05
1.5745e-05
1.56174e-05
1.55099e-05
1.54014e-05
1.53029e-05
1.51909e-05
1.51538e-05
1.50014e-05
1.497e-05
1.48243e-05
1.47836e-05
1.46711e-05
1.45891e-05
1.44713e-05
1.44163e-05
1.4295e-05
1.42781e-05
1.41623e-05
1.41817e-05
1.40687e-05
1.40738e-05
1.39151e-05
1.39432e-05
1.38277e-05
1.38328e-05
1.366e-05
1.39132e-05
1.40311e-05
1.46578e-05
1.42871e-05
1.15227e-05
9.77194e-06
9.76007e-06
9.9934e-06
1.02131e-05
1.03089e-05
1.04119e-05
1.04818e-05
1.05368e-05
1.05649e-05
1.05668e-05
1.05642e-05
1.05154e-05
1.03397e-05
1.01837e-05
1.02039e-05
1.019e-05
9.99054e-06
9.72856e-06
9.61332e-06
9.53797e-06
9.37956e-06
9.14706e-06
8.93873e-06
8.73814e-06
8.52642e-06
8.30719e-06
8.08014e-06
7.84863e-06
7.60594e-06
7.35891e-06
7.11561e-06
6.85743e-06
6.57257e-06
6.22357e-06
5.81187e-06
5.30969e-06
4.76914e-06
4.22127e-06
3.68593e-06
2.91399e-06
1.73696e-06
5.10775e-07
1.78354e-08
5.76956e-09
7.39621e-09
5.30453e-09
4.68902e-09
5.42954e-09
6.52919e-09
8.88423e-09
1.22301e-08
1.80399e-08
2.22458e-08
2.21113e-08
1.64087e-08
1.37188e-08
8.02013e-09
7.06339e-09
5.59794e-09
4.48457e-09
3.6604e-09
2.44767e-09
2.38938e-09
2.30325e-09
1.99306e-09
1.72433e-09
1.4146e-09
1.27467e-09
1.71836e-09
1.61184e-09
1.34827e-09
1.24695e-09
2.17793e-09
7.26532e-09
2.07321e-08
1.3643e-07
6.59825e-07
1.5172e-06
2.62073e-06
2.81801e-06
8.14412e-06
1.26682e-05
1.60845e-05
1.74167e-05
1.78552e-05
1.77634e-05
1.41302e-05
1.55552e-05
1.43114e-05
7.55878e-06
2.23292e-06
1.87332e-07
1.65131e-08
6.05229e-09
1.4549e-08
2.45095e-08
2.86261e-08
2.91719e-08
2.98878e-08
3.01553e-08
3.03167e-08
3.0326e-08
2.97545e-08
2.97729e-08
2.9733e-08
2.89609e-08
2.87993e-08
2.95986e-08
2.82276e-08
2.93634e-08
2.86074e-08
2.87285e-08
2.87009e-08
2.85522e-08
2.93987e-08
2.82035e-08
2.95575e-08
2.87269e-08
2.89322e-08
2.98696e-08
2.97751e-08
2.97408e-08
3.02533e-08
3.02416e-08
3.01884e-08
3.00373e-08
3.05315e-08
3.46515e-08
4.69856e-08
7.28524e-08
1.00813e-07
9.7389e-08
9.60565e-08
8.02126e-07
4.07013e-06
1.03888e-05
1.53128e-05
1.70571e-05
1.67121e-05
1.56074e-05
1.46384e-05
1.41427e-05
1.32778e-05
1.30978e-05
1.28311e-05
1.28321e-05
1.30504e-05
1.27904e-05
1.31353e-05
1.28354e-05
1.32367e-05
1.2884e-05
1.33178e-05
1.29491e-05
1.34009e-05
1.30262e-05
1.35013e-05
1.31157e-05
1.35622e-05
1.32013e-05
1.36295e-05
1.32875e-05
1.36566e-05
1.33634e-05
1.36791e-05
1.34112e-05
1.36851e-05
1.34465e-05
1.37221e-05
1.35131e-05
1.37173e-05
1.35392e-05
1.37403e-05
1.36402e-05
1.3839e-05
1.3778e-05
1.40137e-05
1.40388e-05
1.42447e-05
1.42956e-05
1.44994e-05
1.45698e-05
1.47912e-05
1.49205e-05
1.51292e-05
1.52781e-05
1.5534e-05
1.5698e-05
1.59211e-05
1.61294e-05
1.63606e-05
1.65463e-05
1.67637e-05
1.69273e-05
1.7079e-05
1.72267e-05
1.73921e-05
1.7506e-05
1.76308e-05
1.77809e-05
1.78826e-05
1.79523e-05
1.80489e-05
1.81192e-05
1.82025e-05
1.82469e-05
1.82875e-05
1.83639e-05
1.84043e-05
1.84424e-05
1.84495e-05
1.84767e-05
1.85294e-05
1.85131e-05
1.84891e-05
1.84646e-05
1.84608e-05
1.85037e-05
1.84451e-05
1.83933e-05
1.83394e-05
1.82349e-05
1.8175e-05
1.80747e-05
1.79689e-05
1.78419e-05
1.77184e-05
1.75714e-05
1.74392e-05
1.72848e-05
1.71215e-05
1.69853e-05
1.68195e-05
1.66739e-05
1.65304e-05
1.6389e-05
1.62851e-05
1.62259e-05
1.60386e-05
1.60562e-05
1.59172e-05
1.58455e-05
1.57634e-05
1.56856e-05
1.56128e-05
1.55356e-05
1.54294e-05
1.53572e-05
1.52565e-05
1.51938e-05
1.50745e-05
1.49877e-05
1.48643e-05
1.47502e-05
1.46493e-05
1.45257e-05
1.44033e-05
1.42501e-05
1.41124e-05
1.3944e-05
1.37792e-05
1.36106e-05
1.34069e-05
1.32022e-05
1.29484e-05
1.26862e-05
1.23759e-05
1.20397e-05
1.1633e-05
1.11629e-05
1.05868e-05
9.95676e-06
9.29813e-06
8.64767e-06
7.82669e-06
6.5461e-06
4.97869e-06
4.00507e-06
4.06778e-06
4.26394e-06
3.46633e-06
1.61227e-06
3.26086e-08
4.33335e-08
7.02869e-07
4.81674e-07
1.08294e-07
3.02294e-09
7.32809e-08
2.72437e-08
3.99469e-08
1.53763e-07
5.0644e-09
1.2391e-07
9.14529e-08
2.22027e-08
7.61934e-09
1.28224e-07
1.46689e-07
7.90433e-08
8.44586e-09
2.44713e-07
5.37985e-12
1.26951e-07
3.39928e-07
2.72389e-06
3.91235e-06
3.11173e-06
2.71138e-06
4.29683e-06
6.47483e-06
7.87423e-06
8.55572e-06
9.28893e-06
1.01608e-05
1.09197e-05
1.1509e-05
1.20021e-05
1.24567e-05
1.28581e-05
1.32149e-05
1.34835e-05
1.36648e-05
1.38271e-05
1.39492e-05
1.40739e-05
1.41545e-05
1.4263e-05
1.43408e-05
1.43947e-05
1.44445e-05
1.45075e-05
1.44229e-05
1.44802e-05
1.44857e-05
1.45788e-05
1.46502e-05
1.47433e-05
1.4777e-05
1.48471e-05
1.49092e-05
1.49756e-05
1.49939e-05
1.49502e-05
1.49326e-05
1.49236e-05
1.49047e-05
1.49718e-05
1.50127e-05
1.50468e-05
1.5094e-05
1.50952e-05
1.5125e-05
1.52046e-05
1.51652e-05
1.52539e-05
1.52204e-05
1.52863e-05
1.52049e-05
1.51636e-05
1.55312e-05
1.53564e-05
1.48199e-05
1.59797e-05
1.5998e-05
1.65202e-05
1.8828e-05
2.09512e-05
2.3256e-05
2.4226e-05
2.37559e-05
2.27972e-05
2.20295e-05
2.1441e-05
2.09802e-05
2.06162e-05
2.03997e-05
2.02465e-05
2.01421e-05
2.00042e-05
1.99002e-05
1.9922e-05
1.98959e-05
1.97201e-05
1.9444e-05
1.92672e-05
1.91395e-05
1.8942e-05
1.8711e-05
1.85089e-05
1.83676e-05
1.81917e-05
1.80115e-05
1.78386e-05
1.76882e-05
1.75438e-05
1.73875e-05
1.72402e-05
1.7043e-05
1.68395e-05
1.64339e-05
1.58053e-05
1.47167e-05
1.32452e-05
1.14319e-05
9.74042e-06
8.26601e-06
6.87936e-06
5.67769e-06
4.89601e-06
3.95533e-06
3.29786e-06
2.5494e-06
1.6932e-06
1.13548e-06
1.02568e-06
1.08925e-06
1.15175e-06
1.33976e-06
1.57296e-06
1.75252e-06
1.47411e-06
9.87648e-07
5.90547e-07
3.26027e-07
3.17492e-07
3.94617e-07
3.31433e-07
3.04568e-07
1.68361e-07
2.7596e-07
2.93459e-07
2.82281e-07
2.68345e-07
2.05995e-07
1.99784e-07
3.45923e-07
3.7013e-07
3.83994e-07
4.97025e-07
6.41294e-07
8.73335e-07
1.80917e-06
3.47006e-06
5.53742e-06
7.68841e-06
1.12493e-05
1.59097e-05
1.83309e-05
2.14459e-05
2.50325e-05
2.73335e-05
2.82034e-05
2.91383e-05
2.11186e-05
1.52638e-05
1.51319e-05
9.70953e-06
3.51469e-06
4.99508e-07
1.09616e-07
9.78419e-08
4.75265e-08
2.9339e-08
2.98728e-08
2.99501e-08
3.05654e-08
3.03442e-08
3.04126e-08
3.03105e-08
2.96531e-08
2.96725e-08
2.97665e-08
2.92023e-08
2.88996e-08
2.96068e-08
2.83133e-08
2.95043e-08
2.86215e-08
2.88026e-08
2.88137e-08
2.86381e-08
2.94916e-08
2.82855e-08
2.95537e-08
2.88858e-08
2.90202e-08
2.97498e-08
2.97558e-08
2.97671e-08
3.03787e-08
3.02766e-08
3.04638e-08
3.07634e-08
3.01846e-08
3.17993e-08
3.29861e-08
2.84867e-08
1.52367e-08
1.45847e-08
2.7183e-08
1.94893e-07
2.35814e-06
7.50861e-06
1.30806e-05
1.61107e-05
1.78966e-05
1.82276e-05
1.76679e-05
1.76416e-05
1.69947e-05
1.69661e-05
1.64748e-05
1.68429e-05
1.65788e-05
1.6914e-05
1.67491e-05
1.70285e-05
1.70104e-05
1.71624e-05
1.72525e-05
1.73365e-05
1.748e-05
1.75086e-05
1.77413e-05
1.76871e-05
1.79372e-05
1.78536e-05
1.81273e-05
1.79928e-05
1.82616e-05
1.81239e-05
1.83496e-05
1.82138e-05
1.84301e-05
1.82972e-05
1.85302e-05
1.84001e-05
1.85903e-05
1.85077e-05
1.8734e-05
1.87616e-05
1.90367e-05
1.91276e-05
1.95027e-05
1.96831e-05
2.00125e-05
2.0205e-05
2.0564e-05
2.07954e-05
2.1229e-05
2.15448e-05
2.19448e-05
2.23064e-05
2.28238e-05
2.3178e-05
2.36403e-05
2.40958e-05
2.45433e-05
2.49207e-05
2.53367e-05
2.56278e-05
2.58896e-05
2.61523e-05
2.64136e-05
2.65623e-05
2.67445e-05
2.69569e-05
2.70287e-05
2.70408e-05
2.712e-05
2.7108e-05
2.71226e-05
2.70341e-05
2.69561e-05
2.69439e-05
2.68362e-05
2.67094e-05
2.65254e-05
2.63873e-05
2.62873e-05
2.60171e-05
2.57757e-05
2.55353e-05
2.53309e-05
2.51686e-05
2.48088e-05
2.44989e-05
2.41532e-05
2.37021e-05
2.33671e-05
2.29194e-05
2.24754e-05
2.19934e-05
2.15305e-05
2.1005e-05
2.05428e-05
2.00311e-05
1.95362e-05
1.90963e-05
1.86251e-05
1.82044e-05
1.7826e-05
1.74423e-05
1.71742e-05
1.68865e-05
1.65134e-05
1.63779e-05
1.59991e-05
1.57915e-05
1.55046e-05
1.52524e-05
1.49804e-05
1.46954e-05
1.43924e-05
1.41084e-05
1.37956e-05
1.34993e-05
1.31448e-05
1.2806e-05
1.24264e-05
1.20538e-05
1.16791e-05
1.12688e-05
1.08377e-05
1.03655e-05
9.85968e-06
9.31019e-06
8.71153e-06
8.10028e-06
7.42296e-06
6.74243e-06
6.01743e-06
5.2913e-06
4.52881e-06
3.847e-06
3.29107e-06
2.83021e-06
2.16081e-06
1.3701e-06
9.26761e-07
9.23435e-07
5.83552e-07
1.27898e-07
6.01398e-08
9.23483e-08
3.98515e-08
1.69509e-08
2.00409e-08
4.56645e-08
1.19482e-07
1.04419e-07
4.63282e-08
6.07534e-08
7.17107e-08
7.38817e-08
5.85557e-08
5.69737e-08
4.44153e-08
4.0804e-08
1.38405e-07
7.00771e-08
2.09318e-08
1.4351e-07
1.43968e-07
3.99489e-08
2.13586e-08
3.35075e-08
5.16188e-08
2.82579e-08
2.60758e-08
1.6019e-07
4.88745e-08
1.19853e-08
2.59808e-07
1.5458e-07
5.00125e-11
3.09179e-08
8.67405e-07
9.48406e-07
6.50723e-07
1.20141e-06
2.01227e-06
2.48048e-06
2.76677e-06
3.25036e-06
3.97261e-06
4.75686e-06
5.50478e-06
6.26604e-06
7.05504e-06
7.84818e-06
8.59058e-06
9.30921e-06
9.94544e-06
1.05277e-05
1.10173e-05
1.14439e-05
1.18444e-05
1.22274e-05
1.24671e-05
1.27918e-05
1.30563e-05
1.34344e-05
1.37363e-05
1.41113e-05
1.43708e-05
1.46694e-05
1.49987e-05
1.52371e-05
1.55707e-05
1.56643e-05
1.59086e-05
1.60522e-05
1.62184e-05
1.64558e-05
1.66887e-05
1.68287e-05
1.71345e-05
1.7248e-05
1.74756e-05
1.77446e-05
1.7784e-05
1.80816e-05
1.82269e-05
1.84192e-05
1.8411e-05
1.8403e-05
1.91915e-05
1.90599e-05
1.80211e-05
2.02378e-05
2.02686e-05
2.03513e-05
2.45134e-05
2.86925e-05
3.25325e-05
3.45045e-05
3.45554e-05
3.38324e-05
3.31959e-05
3.26959e-05
3.22776e-05
3.19325e-05
3.18271e-05
3.18196e-05
3.18894e-05
3.18928e-05
3.18823e-05
3.20887e-05
3.23308e-05
3.2272e-05
3.18546e-05
3.15019e-05
3.13642e-05
3.11412e-05
3.08466e-05
3.05368e-05
3.04012e-05
3.02073e-05
3.00182e-05
2.98421e-05
2.97464e-05
2.96764e-05
2.96055e-05
2.95373e-05
2.93689e-05
2.9172e-05
2.85065e-05
2.72716e-05
2.51009e-05
2.22326e-05
1.89179e-05
1.57094e-05
1.29586e-05
1.07855e-05
8.69372e-06
7.3692e-06
6.24297e-06
5.233e-06
4.23466e-06
3.04383e-06
2.15813e-06
2.03169e-06
2.28195e-06
2.43801e-06
2.67358e-06
3.08013e-06
3.63684e-06
3.63782e-06
2.9889e-06
2.00743e-06
8.87898e-07
8.49892e-07
7.24882e-07
5.00513e-07
3.84207e-07
2.58538e-07
5.71134e-07
5.65786e-07
5.61321e-07
6.39562e-07
5.86942e-07
6.74544e-07
8.6463e-07
9.38628e-07
9.89799e-07
8.79065e-07
1.0051e-06
1.74324e-06
3.61813e-06
6.0766e-06
8.51122e-06
1.03421e-05
1.25415e-05
1.60182e-05
2.01948e-05
2.39275e-05
2.87611e-05
3.28544e-05
3.62322e-05
3.77134e-05
3.57425e-05
2.26837e-05
1.66626e-05
1.15321e-05
4.79284e-06
1.17935e-06
1.00387e-07
4.64879e-08
4.82376e-08
3.92544e-08
3.18996e-08
2.98285e-08
2.9898e-08
3.0122e-08
3.03686e-08
3.04619e-08
2.9545e-08
2.97258e-08
2.97542e-08
2.9145e-08
2.87664e-08
2.95816e-08
2.82739e-08
2.94393e-08
2.86552e-08
2.88015e-08
2.87209e-08
2.85625e-08
2.93247e-08
2.81612e-08
2.95417e-08
2.87291e-08
2.89512e-08
2.96994e-08
2.96057e-08
2.97499e-08
3.02593e-08
3.02342e-08
3.01715e-08
3.03455e-08
3.07213e-08
3.35197e-08
3.32259e-08
2.34279e-08
9.58565e-09
7.55101e-09
2.46851e-08
8.79155e-08
1.35096e-06
5.382e-06
1.08162e-05
1.42727e-05
1.61564e-05
1.73825e-05
1.77088e-05
1.8121e-05
1.8042e-05
1.82289e-05
1.81864e-05
1.83365e-05
1.84228e-05
1.85214e-05
1.86831e-05
1.87774e-05
1.89667e-05
1.90695e-05
1.92522e-05
1.93426e-05
1.95349e-05
1.96307e-05
1.9821e-05
1.98818e-05
2.00646e-05
2.00979e-05
2.02903e-05
2.02903e-05
2.04628e-05
2.04501e-05
2.05949e-05
2.0597e-05
2.07417e-05
2.072e-05
2.08732e-05
2.08801e-05
2.10412e-05
2.1116e-05
2.1353e-05
2.1552e-05
2.18783e-05
2.21414e-05
2.25758e-05
2.2893e-05
2.32691e-05
2.36049e-05
2.40604e-05
2.44588e-05
2.50283e-05
2.5489e-05
2.60118e-05
2.65612e-05
2.7243e-05
2.77405e-05
2.83715e-05
2.8999e-05
2.9565e-05
3.00756e-05
3.05954e-05
3.09579e-05
3.12788e-05
3.16109e-05
3.18976e-05
3.20529e-05
3.22563e-05
3.24814e-05
3.24837e-05
3.24466e-05
3.24874e-05
3.23749e-05
3.23009e-05
3.20867e-05
3.19022e-05
3.17905e-05
3.1527e-05
3.12456e-05
3.08966e-05
3.06188e-05
3.03652e-05
2.98821e-05
2.94878e-05
2.90508e-05
2.86047e-05
2.82259e-05
2.7659e-05
2.71596e-05
2.65563e-05
2.58315e-05
2.52781e-05
2.4548e-05
2.38532e-05
2.31022e-05
2.23815e-05
2.15727e-05
2.08814e-05
2.01081e-05
1.93848e-05
1.87346e-05
1.80534e-05
1.7444e-05
1.68907e-05
1.63201e-05
1.59224e-05
1.5435e-05
1.49364e-05
1.46166e-05
1.40866e-05
1.37072e-05
1.32406e-05
1.28242e-05
1.23557e-05
1.1899e-05
1.1386e-05
1.09242e-05
1.03946e-05
9.89406e-06
9.29281e-06
8.70366e-06
8.02788e-06
7.3468e-06
6.63164e-06
5.88112e-06
5.13624e-06
4.40911e-06
3.70105e-06
3.02279e-06
2.37845e-06
1.84068e-06
1.35624e-06
9.16446e-07
5.2465e-07
3.26194e-07
1.97041e-07
8.81192e-08
4.88565e-08
7.16458e-08
5.04003e-08
2.18385e-08
2.32043e-08
3.87383e-08
2.73374e-08
2.74192e-08
3.27298e-08
2.849e-08
4.58889e-08
7.04866e-08
4.7401e-08
3.81221e-08
2.87336e-08
2.45656e-08
3.48921e-08
3.45241e-08
3.08259e-08
4.46143e-08
5.2147e-08
7.38446e-08
7.9868e-08
7.04386e-08
3.35407e-08
7.58432e-08
1.07769e-07
6.25851e-08
8.45234e-08
1.27943e-07
4.92557e-08
4.68491e-08
2.75758e-08
1.97338e-08
5.61455e-09
1.11271e-08
3.57687e-09
1.33303e-09
6.98439e-09
1.1711e-08
1.58792e-09
4.85624e-09
1.69288e-08
8.07671e-09
2.6521e-09
8.47439e-09
1.03467e-08
2.77844e-08
1.7509e-08
3.51982e-08
9.95397e-08
2.35793e-07
4.23701e-07
7.42577e-07
1.13435e-06
1.62466e-06
2.13359e-06
2.73994e-06
3.42176e-06
4.1947e-06
4.93545e-06
5.64792e-06
6.38805e-06
7.16109e-06
7.86588e-06
8.59653e-06
9.187e-06
9.89054e-06
1.04697e-05
1.11285e-05
1.16386e-05
1.21413e-05
1.27363e-05
1.31329e-05
1.37594e-05
1.40383e-05
1.45481e-05
1.48831e-05
1.52719e-05
1.56529e-05
1.60885e-05
1.63359e-05
1.68533e-05
1.70713e-05
1.74757e-05
1.79249e-05
1.81203e-05
1.8528e-05
1.88354e-05
1.91318e-05
1.92875e-05
1.93234e-05
2.03759e-05
2.03884e-05
1.91343e-05
2.17163e-05
2.20025e-05
2.23574e-05
2.77653e-05
3.3426e-05
3.76021e-05
3.96966e-05
3.99032e-05
3.9452e-05
3.90979e-05
3.88311e-05
3.85949e-05
3.83728e-05
3.84296e-05
3.86087e-05
3.88718e-05
3.9077e-05
3.926e-05
3.96249e-05
4.00209e-05
4.01214e-05
3.97802e-05
3.9374e-05
3.91852e-05
3.89198e-05
3.86314e-05
3.83025e-05
3.81899e-05
3.80158e-05
3.78457e-05
3.76868e-05
3.76435e-05
3.76519e-05
3.76794e-05
3.77291e-05
3.76254e-05
3.75133e-05
3.68483e-05
3.5472e-05
3.29729e-05
2.9496e-05
2.54023e-05
2.12312e-05
1.73579e-05
1.44179e-05
1.16954e-05
9.61435e-06
8.23408e-06
7.25108e-06
6.23659e-06
4.7412e-06
3.16789e-06
2.21504e-06
2.42247e-06
2.89221e-06
3.2637e-06
3.71198e-06
4.62982e-06
5.23434e-06
4.99328e-06
4.07422e-06
1.63438e-06
1.23019e-06
9.87233e-07
7.2831e-07
6.58017e-07
4.30395e-07
8.4972e-07
7.66478e-07
6.52888e-07
7.4292e-07
7.07886e-07
7.79178e-07
8.68172e-07
9.75538e-07
1.09961e-06
1.12176e-06
1.41461e-06
2.4474e-06
4.61135e-06
7.47841e-06
1.03333e-05
1.24292e-05
1.42021e-05
1.57762e-05
1.95316e-05
2.33308e-05
2.85846e-05
3.34154e-05
3.92926e-05
4.19436e-05
4.53655e-05
3.56863e-05
2.19828e-05
1.33775e-05
5.86701e-06
1.63203e-06
1.28487e-07
8.56194e-09
1.06247e-08
2.19518e-08
2.85195e-08
2.93848e-08
3.03614e-08
3.01811e-08
3.04365e-08
3.02388e-08
2.94176e-08
2.97773e-08
2.98523e-08
2.92358e-08
2.89302e-08
2.96439e-08
2.82767e-08
2.94183e-08
2.86203e-08
2.87643e-08
2.88631e-08
2.86673e-08
2.94839e-08
2.8274e-08
2.9597e-08
2.88892e-08
2.90388e-08
2.97148e-08
2.97401e-08
2.95062e-08
3.02795e-08
3.04095e-08
3.04615e-08
3.04539e-08
2.91113e-08
2.85407e-08
2.953e-08
5.29226e-08
1.26311e-07
1.37957e-07
7.55528e-08
6.85029e-08
3.02087e-07
3.13046e-06
8.3525e-06
1.26876e-05
1.4649e-05
1.64095e-05
1.69966e-05
1.77808e-05
1.79591e-05
1.83556e-05
1.84256e-05
1.87236e-05
1.8808e-05
1.90535e-05
1.91776e-05
1.93865e-05
1.95467e-05
1.97317e-05
1.98835e-05
2.00506e-05
2.01984e-05
2.03671e-05
2.05002e-05
2.06522e-05
2.07584e-05
2.0893e-05
2.10039e-05
2.11157e-05
2.12145e-05
2.13185e-05
2.13987e-05
2.15196e-05
2.16054e-05
2.17041e-05
2.18128e-05
2.19751e-05
2.21368e-05
2.23955e-05
2.26612e-05
2.30404e-05
2.34096e-05
2.38368e-05
2.42813e-05
2.47145e-05
2.51264e-05
2.56121e-05
2.61475e-05
2.67056e-05
2.7384e-05
2.79607e-05
2.85905e-05
2.93195e-05
3.01155e-05
3.07358e-05
3.15047e-05
3.22557e-05
3.28923e-05
3.35072e-05
3.40709e-05
3.44708e-05
3.48253e-05
3.51961e-05
3.54628e-05
3.56097e-05
3.5809e-05
3.60098e-05
3.59048e-05
3.58176e-05
3.57913e-05
3.55513e-05
3.53636e-05
3.50157e-05
3.47165e-05
3.44823e-05
3.40386e-05
3.35929e-05
3.30792e-05
3.26593e-05
3.22294e-05
3.15347e-05
3.09921e-05
3.03281e-05
2.96178e-05
2.90238e-05
2.82808e-05
2.75978e-05
2.6735e-05
2.57637e-05
2.50116e-05
2.40174e-05
2.31093e-05
2.21214e-05
2.11779e-05
2.013e-05
1.92588e-05
1.8257e-05
1.73619e-05
1.65332e-05
1.56897e-05
1.49079e-05
1.42132e-05
1.34572e-05
1.29454e-05
1.22517e-05
1.1649e-05
1.11175e-05
1.04588e-05
9.86886e-06
9.22849e-06
8.60648e-06
7.89374e-06
7.20321e-06
6.40197e-06
5.70682e-06
4.9234e-06
4.2739e-06
3.52918e-06
2.9303e-06
2.25793e-06
1.74152e-06
1.23121e-06
8.22989e-07
4.6494e-07
2.92024e-07
1.49422e-07
9.6045e-08
4.97706e-08
5.75862e-08
4.55797e-08
5.35074e-08
3.43999e-08
4.45063e-08
3.39492e-08
4.65459e-08
3.76273e-08
5.25979e-08
4.1595e-08
6.34347e-08
5.62428e-08
6.58209e-08
5.72373e-08
6.62558e-08
4.80006e-08
5.2363e-08
3.50719e-08
4.36342e-08
4.16879e-08
6.08803e-08
5.50614e-08
7.5154e-08
6.53287e-08
7.72058e-08
7.76666e-08
6.80569e-08
5.12357e-08
4.01484e-08
4.43816e-08
5.47334e-08
6.9241e-08
7.60212e-08
2.2116e-08
1.13548e-07
3.97081e-08
3.18012e-08
2.75509e-08
5.79133e-08
3.49297e-08
7.84893e-08
6.02446e-08
8.60453e-08
5.1085e-08
5.55027e-08
3.87006e-08
4.4484e-08
2.1882e-08
2.87937e-08
2.14596e-08
3.03101e-08
2.24315e-08
3.1417e-08
2.19253e-08
2.65721e-08
2.09981e-08
1.89615e-08
1.88898e-08
1.78084e-08
1.26863e-08
1.89151e-08
2.39119e-08
2.4426e-08
5.47021e-08
7.30599e-08
1.17744e-07
2.9337e-07
5.90097e-07
7.18808e-07
1.11444e-06
1.56889e-06
2.12646e-06
2.68924e-06
3.23089e-06
4.04447e-06
4.79298e-06
5.72444e-06
6.53533e-06
7.2876e-06
8.24181e-06
8.84814e-06
9.85464e-06
1.03512e-05
1.11758e-05
1.17259e-05
1.23699e-05
1.2903e-05
1.35965e-05
1.3938e-05
1.47043e-05
1.50431e-05
1.5634e-05
1.62459e-05
1.66134e-05
1.71438e-05
1.77075e-05
1.8083e-05
1.84071e-05
1.85483e-05
1.97481e-05
1.99987e-05
1.86897e-05
2.13405e-05
2.18188e-05
2.27223e-05
2.9179e-05
3.58714e-05
4.024e-05
4.19983e-05
4.21476e-05
4.19825e-05
4.20056e-05
4.2085e-05
4.21471e-05
4.21373e-05
4.24072e-05
4.28239e-05
4.33234e-05
4.37805e-05
4.42292e-05
4.47958e-05
4.53372e-05
4.56239e-05
4.54654e-05
4.51025e-05
4.48836e-05
4.45735e-05
4.43086e-05
4.40009e-05
4.39308e-05
4.3813e-05
4.36907e-05
4.35676e-05
4.35826e-05
4.36797e-05
4.38166e-05
4.40254e-05
4.40304e-05
4.40516e-05
4.35323e-05
4.22613e-05
3.98282e-05
3.62184e-05
3.17681e-05
2.70543e-05
2.2267e-05
1.84063e-05
1.51063e-05
1.22178e-05
1.01778e-05
9.05435e-06
8.27229e-06
6.86947e-06
4.92323e-06
3.13837e-06
2.50117e-06
2.6388e-06
3.05438e-06
3.5264e-06
4.6679e-06
5.97668e-06
6.4475e-06
6.85993e-06
4.16261e-06
2.27285e-06
1.39109e-06
1.10391e-06
1.16886e-06
8.71308e-07
1.12504e-06
1.11053e-06
1.00769e-06
1.02405e-06
9.50825e-07
9.29048e-07
9.30393e-07
9.8433e-07
1.04537e-06
1.06448e-06
1.3341e-06
2.12522e-06
3.92659e-06
6.66298e-06
9.8152e-06
1.24527e-05
1.48709e-05
1.66541e-05
1.85583e-05
2.17069e-05
2.65671e-05
3.17264e-05
3.87303e-05
4.39244e-05
5.05339e-05
4.92856e-05
3.33071e-05
1.73806e-05
7.53582e-06
2.16271e-06
2.80395e-07
7.6341e-08
5.13953e-08
3.57098e-08
3.24373e-08
3.0753e-08
3.03983e-08
3.01763e-08
3.04499e-08
3.01903e-08
2.9716e-08
2.97868e-08
2.97895e-08
2.90799e-08
2.87685e-08
2.95571e-08
2.82319e-08
2.94148e-08
2.8609e-08
2.87605e-08
2.87003e-08
2.85657e-08
2.93589e-08
2.82531e-08
2.95616e-08
2.88157e-08
2.89205e-08
2.96311e-08
2.96993e-08
2.94925e-08
3.03282e-08
3.0429e-08
3.02629e-08
3.00768e-08
2.94849e-08
2.65537e-08
1.99481e-08
1.67952e-08
2.71593e-08
3.27461e-08
7.8773e-09
3.25383e-08
1.75954e-07
1.16455e-06
5.14899e-06
9.90142e-06
1.25924e-05
1.42622e-05
1.55046e-05
1.62506e-05
1.68158e-05
1.7253e-05
1.75545e-05
1.78765e-05
1.80971e-05
1.83595e-05
1.8546e-05
1.87843e-05
1.89459e-05
1.91664e-05
1.93097e-05
1.95062e-05
1.96433e-05
1.98532e-05
1.9939e-05
2.01506e-05
2.02143e-05
2.04113e-05
2.04837e-05
2.06896e-05
2.07426e-05
2.09448e-05
2.10021e-05
2.12181e-05
2.12996e-05
2.15134e-05
2.16269e-05
2.19474e-05
2.21548e-05
2.25731e-05
2.29018e-05
2.34213e-05
2.38349e-05
2.4365e-05
2.48049e-05
2.53295e-05
2.57956e-05
2.64192e-05
2.7035e-05
2.77266e-05
2.84809e-05
2.91463e-05
2.98837e-05
3.07654e-05
3.16295e-05
3.23554e-05
3.32225e-05
3.40498e-05
3.47207e-05
3.54062e-05
3.59546e-05
3.63732e-05
3.67349e-05
3.71139e-05
3.7323e-05
3.74524e-05
3.76222e-05
3.77608e-05
3.75209e-05
3.73882e-05
3.72658e-05
3.68753e-05
3.6557e-05
3.60749e-05
3.56511e-05
3.52722e-05
3.46313e-05
3.40189e-05
3.33461e-05
3.27828e-05
3.21584e-05
3.12575e-05
3.05689e-05
2.96547e-05
2.86828e-05
2.78893e-05
2.69925e-05
2.6138e-05
2.50288e-05
2.38488e-05
2.29248e-05
2.16936e-05
2.06163e-05
1.94243e-05
1.83012e-05
1.7057e-05
1.60471e-05
1.48469e-05
1.38238e-05
1.28399e-05
1.18651e-05
1.09309e-05
1.00996e-05
9.14744e-06
8.5027e-06
7.54234e-06
6.79903e-06
5.97314e-06
5.1624e-06
4.35325e-06
3.63811e-06
2.96101e-06
2.31569e-06
1.77646e-06
1.1992e-06
8.595e-07
4.28207e-07
3.32126e-07
1.11516e-07
1.24507e-07
4.06682e-08
6.23751e-08
3.14543e-08
4.4023e-08
2.37273e-08
4.55971e-08
2.22953e-08
5.15811e-08
2.40859e-08
4.60203e-08
2.15372e-08
3.937e-08
2.45861e-08
4.26267e-08
2.78554e-08
4.18243e-08
2.61423e-08
3.65117e-08
2.45987e-08
3.29843e-08
2.24599e-08
2.91672e-08
2.08313e-08
3.23794e-08
2.99128e-08
4.94606e-08
4.27076e-08
5.17424e-08
4.00402e-08
4.26588e-08
3.82168e-08
3.69497e-08
3.86258e-08
3.47652e-08
3.81762e-08
3.77602e-08
6.40461e-08
6.41432e-08
7.29467e-08
6.83258e-08
5.60259e-08
5.95681e-08
1.17588e-07
8.88886e-08
1.1597e-07
1.2537e-07
1.02742e-07
6.7585e-08
2.61124e-08
1.95163e-08
7.85269e-09
1.14694e-08
6.47625e-09
1.08224e-08
7.14205e-09
1.24944e-08
8.15418e-09
1.22073e-08
7.86399e-09
9.67117e-09
7.69476e-09
9.2135e-09
9.91324e-09
1.00567e-08
1.30937e-08
1.07021e-08
1.68948e-08
1.18683e-08
2.16171e-08
7.78613e-09
2.52283e-08
4.39733e-09
2.68405e-08
4.07549e-09
2.68861e-08
1.60678e-09
4.18745e-08
3.29546e-09
2.91881e-08
2.89678e-08
4.0745e-08
1.02349e-07
1.13724e-07
2.86452e-07
4.84852e-07
9.47408e-07
1.37734e-06
1.74709e-06
2.61498e-06
2.8837e-06
4.03265e-06
4.6318e-06
5.74842e-06
6.53362e-06
7.54327e-06
8.29683e-06
9.3315e-06
9.82284e-06
1.08546e-05
1.13864e-05
1.21656e-05
1.29318e-05
1.35335e-05
1.41663e-05
1.49553e-05
1.54614e-05
1.60103e-05
1.62856e-05
1.75093e-05
1.80866e-05
1.69045e-05
1.93766e-05
1.99204e-05
2.16556e-05
2.90556e-05
3.65761e-05
4.07694e-05
4.18355e-05
4.17533e-05
4.18254e-05
4.22656e-05
4.27693e-05
4.32294e-05
4.35161e-05
4.40446e-05
4.4741e-05
4.55166e-05
4.62715e-05
4.70349e-05
4.78506e-05
4.85529e-05
4.90519e-05
4.9165e-05
4.89316e-05
4.87214e-05
4.83794e-05
4.81481e-05
4.78894e-05
4.78753e-05
4.78463e-05
4.78078e-05
4.77456e-05
4.78267e-05
4.80211e-05
4.82699e-05
4.86642e-05
4.88255e-05
4.90094e-05
4.87302e-05
4.77235e-05
4.56228e-05
4.22614e-05
3.78425e-05
3.29722e-05
2.76952e-05
2.29433e-05
1.89797e-05
1.54255e-05
1.25e-05
1.07196e-05
9.90784e-06
8.75829e-06
7.13351e-06
5.09689e-06
3.25581e-06
2.70856e-06
2.88115e-06
2.50112e-06
3.343e-06
5.33437e-06
6.41293e-06
8.19842e-06
7.64915e-06
5.6369e-06
3.37883e-06
1.97212e-06
1.8733e-06
1.48773e-06
1.46892e-06
1.50458e-06
1.41635e-06
1.28785e-06
1.20438e-06
1.10707e-06
1.11027e-06
1.04167e-06
1.14242e-06
1.0546e-06
1.11435e-06
1.34977e-06
2.3011e-06
4.07406e-06
7.25931e-06
1.04597e-05
1.38045e-05
1.62234e-05
1.85211e-05
2.05015e-05
2.35704e-05
2.8243e-05
3.56945e-05
4.29162e-05
5.09189e-05
5.87655e-05
4.69154e-05
2.45166e-05
9.90426e-06
3.00973e-06
4.41274e-07
7.48332e-08
4.58462e-08
3.52394e-08
3.04251e-08
2.92103e-08
3.04562e-08
3.01944e-08
3.04824e-08
3.03156e-08
2.95733e-08
2.974e-08
2.97668e-08
2.91706e-08
2.89128e-08
2.96486e-08
2.82361e-08
2.94744e-08
2.86022e-08
2.87682e-08
2.88139e-08
2.86642e-08
2.95088e-08
2.83013e-08
2.96703e-08
2.88984e-08
2.89627e-08
2.96295e-08
2.97205e-08
2.93475e-08
3.02612e-08
3.05061e-08
3.03017e-08
3.07122e-08
3.09615e-08
3.53394e-08
4.02473e-08
2.82906e-08
7.013e-09
6.10744e-09
3.56336e-08
1.50867e-08
1.82476e-08
3.57151e-07
2.59673e-06
6.78992e-06
9.84675e-06
1.16048e-05
1.3051e-05
1.39908e-05
1.46542e-05
1.5288e-05
1.56113e-05
1.60916e-05
1.62859e-05
1.66798e-05
1.68217e-05
1.71486e-05
1.72649e-05
1.75622e-05
1.76451e-05
1.79266e-05
1.79883e-05
1.82615e-05
1.83086e-05
1.85849e-05
1.86165e-05
1.8887e-05
1.89479e-05
1.92219e-05
1.92766e-05
1.95539e-05
1.96378e-05
1.99244e-05
2.00523e-05
2.03606e-05
2.05548e-05
2.09858e-05
2.12847e-05
2.18139e-05
2.2211e-05
2.28084e-05
2.32505e-05
2.38153e-05
2.4267e-05
2.48684e-05
2.54135e-05
2.61536e-05
2.68269e-05
2.76178e-05
2.84288e-05
2.91588e-05
3.00028e-05
3.10044e-05
3.18942e-05
3.27036e-05
3.36261e-05
3.44857e-05
3.51597e-05
3.58747e-05
3.63587e-05
3.67852e-05
3.71314e-05
3.74864e-05
3.76082e-05
3.77152e-05
3.78258e-05
3.78658e-05
3.74735e-05
3.73e-05
3.70474e-05
3.64871e-05
3.60311e-05
3.54194e-05
3.48596e-05
3.43182e-05
3.34708e-05
3.26985e-05
3.18779e-05
3.11656e-05
3.0332e-05
2.92367e-05
2.8403e-05
2.72303e-05
2.60245e-05
2.50568e-05
2.40364e-05
2.30237e-05
2.1693e-05
2.03535e-05
1.929e-05
1.78566e-05
1.66561e-05
1.52935e-05
1.4029e-05
1.26216e-05
1.14943e-05
1.00816e-05
8.91521e-06
7.69608e-06
6.55212e-06
5.42637e-06
4.53649e-06
3.49223e-06
2.9962e-06
1.99965e-06
1.71169e-06
9.64251e-07
7.52452e-07
2.46447e-07
3.1585e-07
5.36211e-08
1.23949e-07
2.79513e-08
6.58141e-08
1.83814e-08
6.73305e-08
1.96335e-08
5.79659e-08
2.65256e-08
4.44016e-08
2.34322e-08
5.31751e-08
1.79047e-08
6.25755e-08
1.69355e-08
5.74973e-08
1.85919e-08
4.90501e-08
2.37914e-08
5.44497e-08
2.95101e-08
5.04271e-08
2.76409e-08
4.70047e-08
2.9214e-08
5.01221e-08
3.70061e-08
5.73187e-08
4.12593e-08
6.03281e-08
5.05097e-08
6.90808e-08
4.99427e-08
5.30511e-08
3.34976e-08
4.18447e-08
3.49198e-08
5.06954e-08
4.23462e-08
5.67578e-08
4.87047e-08
6.36166e-08
5.81361e-08
7.32809e-08
6.53659e-08
5.40891e-08
5.74895e-08
3.89511e-08
4.63399e-08
5.32377e-08
7.51455e-08
2.41021e-08
8.95849e-08
4.17573e-08
2.61707e-08
1.49697e-08
2.05711e-08
3.74224e-08
3.57043e-08
4.08812e-08
2.53895e-08
3.18812e-08
1.37797e-08
2.19742e-08
6.26991e-09
1.98074e-08
4.12484e-09
2.29542e-08
3.08586e-09
2.366e-08
2.10921e-09
2.22293e-08
1.56685e-09
1.88616e-08
1.38286e-09
1.59831e-08
1.17297e-09
1.92145e-08
1.26105e-09
2.87574e-08
9.71055e-10
3.78148e-08
9.45911e-10
4.61741e-08
1.78049e-09
5.0163e-08
1.19471e-09
5.00241e-08
1.05423e-09
3.8179e-08
6.59689e-09
4.25407e-09
7.40407e-08
1.07623e-09
2.23584e-08
1.62528e-07
4.64125e-11
2.62161e-07
2.23797e-08
6.55047e-07
1.46742e-07
9.64733e-07
1.39832e-06
2.31828e-06
2.71737e-06
3.78e-06
4.16087e-06
5.39398e-06
6.13994e-06
7.13152e-06
8.11477e-06
8.99656e-06