/*--------------------------------*- C++ -*----------------------------------*\
| =========                 |                                                 |
| \\      /  F ield         | OpenFOAM: The Open Source CFD Toolbox           |
|  \\    /   O peration     | Version:  v2006                                 |
|   \\  /    A nd           | Website:  www.openfoam.com                      |
|    \\/     M anipulation  |                                                 |
\*---------------------------------------------------------------------------*/
FoamFile
{
    version     2.0;
    format      ascii;
    class       volScalarField;
    location    "100";
    object      ducSensor;
}
// * * * * * * * * * * * * * * * * * * * * * * * * * * * * * * * * * * * * * //

dimensions      [0 0 0 0 0 0 0];


internalField   nonuniform List<scalar> 
93840
(
0
0
0
0.0119211
0
0
0
0
0
0
0
0
0
0
0
0.0097861
0
0
0
0.200059
0
0
0
0.0426457
0
0
0.23377
0
0
0.0191171
0
0.0227165
0.00124828
0
0
0
0
0
0
0
0
0
0
0
0
0
0
0
0
0
0
0
0
0
0
0
0
0
0
1.52787e-05
0
0
0.000162562
0
0
0
3.08852e-05
2.03768e-05
8.96658e-05
0.000124227
4.27596e-05
0.000128329
9.04427e-05
0.000150107
0.000173604
0.000226157
0.000169106
0.000208983
0.000235425
0.000214376
0.00023297
0.00027185
0.000216654
0.000302887
0.000276446
0.000286397
0.000326193
0.000309149
0.000306535
0.000343525
0.000392046
0.000399533
0.000397579
0.000395821
0.000402718
0.000425098
0.000430828
0.000443594
0.00046314
0.000487813
0.000495449
0.000495145
0.000648578
0.0007922
0.000537992
0.000285673
0.00044467
0.00066048
0.000678906
0.000669816
0.000658728
0.000640699
0.000679002
0.000672547
0.000625486
0.00056731
0.000582393
0.00058352
0.00050123
0.000459655
0.000400313
0.000287587
0.000108313
0
0
0
0
0
0
0
0
0
0
0
0
0
0
0
0
0
0
0
0
0
0
0
0
0
0
0
0
0
0
0
0
0
0
0
0
0
0
0
0
0
0
0
0
0
0
0
0
0
0
0
0
0
0
0
0
0
0
0
0
0
0
0
0
0
0
0
0
0
0
0
0
0
0
0
0
0
0
0
0
0
0
0
0
0
0
0.000314985
0
0
0
0
0.000213749
0
0
0
0.000103424
0
0
0
0
0.000151064
0.000180592
3.29175e-05
9.35133e-06
0
0.000194523
0
0
0
0
0
0
0
0
0
0
0
0
0
1.65993e-05
0
0
0
0
3.51375e-05
0.000101177
0
9.02173e-06
0.0017965
0.00352166
0.00634437
0.0134205
0.00310375
0
0.000150653
0.000432055
0.000367203
0.000394822
0.000402231
0.000485667
0.000567239
0.000647166
0.00066884
0.000703817
0.000898136
0.0010393
0.000790466
0.000561894
0.000789949
0.00111859
0.00101622
0.000751696
0.000787727
0.000961751
0.00104874
0.00100715
0.000995892
0.00105714
0.00106422
0.00112321
0.00115027
0.00115937
0.00117365
0.00119529
0.00121331
0.00130661
0.00129444
0.0015457
0.0015796
0.00204326
0.00209066
0.00248942
0.00302955
0.00361605
0.00424679
0.00655223
0.0177167
0.0448036
0.0516643
0.0264744
0.00842618
0.00647928
0.0103482
0.00632311
0.00109007
0.00873836
0
0
0
0.00171067
0
0
0
0
0.0225228
0.0324889
0
0
0
0
0.108173
0.0863201
0.0215484
0.0432414
0
0
0
0
0
0
0.964463
0.0310806
0
0
0
0.00474971
0
0
0.00623325
0
0
0.0800291
0
0
0
0.146778
0
0
0
0
0
0
0
0
0.0119167
0
0
0.000251603
0
0
0
0.000947932
0
0
0.000833423
0.0993396
0.0771958
0
0
0.000416792
0
0
0
0.0208683
0.0029213
0.0205025
0
0
0.0158131
0
0
0.0301758
0
0
0.172035
0
0
0.0187406
0.0560454
0.0394022
0.004898
0.678665
0.00120142
0
0.0654931
0
0
0
0
0
0
0
0
0
0
0
0
0
0.000585565
0
0
0
0
0
0
0
0
0.00134577
0
0.00155239
0
0
0
0.00248487
0.000416901
0
8.65525e-05
0.000776108
0.00242344
0
0
0.000640528
0.00152871
0.000586715
0.0020555
0.000267457
0.000789556
0.000441072
0.00144103
0.000887832
0.00108087
0.000894069
0.00109531
0.000968656
0.00123756
0.00129296
0.00157685
0.000880291
0.00141179
0.00136771
0.00130992
0.00179355
0.00173005
0.0015801
0.00166889
0.00170859
0.00185787
0.00186242
0.00176397
0.00182728
0.00196471
0.00211586
0.00221713
0.00229106
0.00244051
0.00253195
0.00255186
0.00303485
0.00371984
0.00300955
0.0020265
0.00270822
0.00360064
0.0037943
0.00381529
0.00383367
0.00375766
0.00396614
0.00397253
0.0036376
0.00329633
0.00338328
0.00326774
0.00312189
0.00256911
0.00224965
0.000710184
0
0
0
0
0
0
0
0
0
0
0
0
0
0
0
0
0
0
0
0
0
0
0
0
0
0
0
0
0
0
0
0
0
0
0
0
0
0
0
0
0
0
0
0
0
0
0
0
0
0
0
0
0
0
0
0.0992421
0
0.191369
0
0.383346
0.57382
0.300682
0
0
0
0
0
0
0
0
0
0
0
0
0
0
0
0
0
0
0
0
0
0
0
0
0
0
0
0
0
0
0
0
0
0
0
0
0
0
0
0
0
0
0
0
0
0
0
0
0
0
0
0
0
0
0
0
0.000429544
0
0
0
0
0
0.000145666
0
0
0
0
0.0111411
0.0459773
0.0818462
0.0200255
0.00808559
0.00598038
0.00644482
0.00621874
0.00578574
0.00551351
0.00525549
0.00521955
0.00514388
0.0050739
0.00494987
0.00491766
0.00489244
0.00465848
0.00425229
0.00411335
0.00412371
0.00386694
0.00342937
0.00333924
0.003238
0.00258824
0.00213918
0.00181914
0.00135214
0.00107553
0.000419336
0.000125391
0
0
0
0
0
0
0
0
0
0
0
0
0
0
0
0
0
0
0
0
0
0
0
0
0
0
0.00445407
0
0.00431545
0.0416739
0
0.0106882
0.0179084
0.0242424
0
0
0.00613842
0
0.033301
0
0
0
0
0
0.0105688
0.0383685
0.172639
0.11181
0
0.0809841
0
0.0435873
0
0.112693
0.0506589
0.0365507
0.0438003
0.0136059
0.0312807
0
0
0.170442
0.0251286
0.0082566
0
0.115433
0
0.000783972
0.00104892
0
0
0
0.0410682
0
0
0
0.0185355
0
0.00870627
0.0355026
0.0192196
0
0
0
0.0116772
0.0874474
0
0
0
0.0374485
0.0221228
0.107346
0.0086965
0.0310188
0
0.00131961
0
0.0502625
0
0.0012231
0.0433273
0
0
0
0.135151
0
0
0
0.011758
0.0182468
0
0.061434
0
0.107425
0
0
0.385464
0
0
0
0
0
0
0
0
0
0
0
0
0
0
0
0
0
0
0
0
0
0
0
0
0
0
0.00117275
0
0
0
0
0.000785978
0
0
0.00265004
9.6712e-05
0
0.000986557
0.00224409
0.00139147
0.00140884
0.000966933
0.00227752
0.00251028
0.00231616
0.00238047
0.00259242
0.00267404
0.00287511
0.00324511
0.0027259
0.00364231
0.00340016
0.00353383
0.00394469
0.0038287
0.00365305
0.00398695
0.0044519
0.00457831
0.00456871
0.004547
0.00467492
0.00498694
0.00507367
0.0052062
0.00543632
0.00562896
0.0056713
0.00558538
0.00719231
0.00921607
0.00672139
0.00351867
0.00531572
0.00761787
0.00802289
0.00800878
0.00797555
0.00778347
0.00830002
0.0085387
0.00795569
0.00755024
0.00800276
0.00808456
0.0075175
0.00649737
0.0063796
0.00365061
0.00250025
0
0
0
0
0
0
0
0
0
0
0
0
0
0
0
0
0
0
0
0
0
0
0
0
0
0
0
0
0
0
0
0
0
0
0
0
0
0
0
0
0
0
0
0
0
0
0
0
0
0
0
0
0
0
0
0
0
0
0
0
0
0
0
0
0
0
0
0
0
0
0
0
0
0
0
0
0
0
0.000907766
0.06129
0
0
0
0.0210387
0
0
0
0
0
0
0.00989575
0
0
0
0
0.00390368
0
0
0
0
0
0
0
0
0
0.000390511
0
0
0
0
0
0
0
0
0
0.000643728
0
0
0
0
0
0.000857407
0
0
0
0.00543741
0
0.00116105
0.0213832
0.0719041
0.0968897
0.0703035
0.0252324
0.00570375
0.0038875
0.00416566
0.0037159
0.00412093
0.00436697
0.00517289
0.00598007
0.00670329
0.00696849
0.00744794
0.00909372
0.0100978
0.00784907
0.00609024
0.00806167
0.010202
0.00899054
0.00700531
0.00738463
0.00855184
0.00885773
0.00834524
0.00801431
0.00808859
0.00781206
0.00784453
0.00769339
0.00735784
0.00718382
0.00694017
0.0067753
0.00688031
0.00638054
0.00685776
0.00606142
0.00667387
0.00596243
0.00578579
0.00600028
0.00608622
0.00494179
0.00364842
0.00389101
0.00730184
0.00765993
0.00676024
0.00519591
0.00390775
0.000487311
0.00418845
0
7.09781e-05
0.00978832
0.00207795
0.0102349
0.00508879
0.000491116
0
0
0.0656223
0
0
0.0450941
0
0
0
0
0
0.00664914
0.050954
0.379908
0.15164
0.51391
0.425605
0
0
0
0.236047
0.0893526
0.030881
0.00656147
0
0.00758689
0
0.0150968
0
0
0.0251184
0
0
0
0.00898129
0.147225
0
0
0.00630567
0
0
0
0
0.0134904
0
0
0
0.0184731
0.0235163
0
0.02426
0.0738488
0.0204271
0
0
0.0668622
0
0
0
0.0021555
0
0
0.0112613
0
0
0.00642472
0.0179747
0
0.00255378
0.0339056
0.000596682
0
0
0.204595
0
0
0
0.023389
0
0
0.0839185
0
0
0.0336982
0
0
0
0
0
0
0
0
0
0
0
0
0
0
0
0
0
0
0
0
0
0
0
0
0
0.000749461
0
0
0.00230591
0
0
0
0
0.00228025
0
0
0.00168543
0.00220237
0
0
0.00226134
0.0019921
0.00248077
0.000253396
0.00184431
0.00247072
0.00246809
0.00224924
0.00257469
0.0028376
0.00297027
0.00328624
0.00274271
0.00358949
0.00341788
0.00351684
0.00406374
0.0039425
0.00374011
0.00405054
0.0044994
0.0046599
0.00465588
0.00458829
0.00470922
0.00502471
0.0051613
0.00531649
0.00552786
0.00576266
0.00587303
0.00585569
0.00749059
0.00949559
0.00696327
0.00381331
0.00565207
0.0080937
0.00860206
0.00870136
0.00872264
0.00857659
0.00924735
0.00948558
0.00896405
0.00860332
0.00915593
0.00911931
0.00896657
0.00759498
0.006978
0.00386304
0.00190624
0
0
0
0
0
0
0
0
0
0
0
0
0
0
0
0
0
0
0
0
0
0
0
0
0
0
0
0
0
0
0
0
0
0
0
0
0
0
0
0
0
0
0
0
0
0
0
0
0
0
0
0
0
0
0
0
0
0.00451998
0.112486
0.028144
0
0
0
0
0
0
0
0
0
0
0
0
0
0
0
0
0
0
0
0
0
0
0
0
0.0253735
0
0.0421594
0.0381647
0
0
0
0
0
0
0
0
0
0
0
0
0
0
0
0
0
0
0
0
0
0
0
0
0
0
0
0
0
0
0
0
0
0
0
0
0
0
0
0
0.0363276
0.0900286
0.0881116
0.0968045
0.0278698
0.00433775
0.0034753
0.00451968
0.00437613
0.00480959
0.00505571
0.00581798
0.00655718
0.00723031
0.0075089
0.00794646
0.00932907
0.0100686
0.00815626
0.00670578
0.00830079
0.00995403
0.00881977
0.00716241
0.00737066
0.00801352
0.0080704
0.00752274
0.00708032
0.00699565
0.00652512
0.00639934
0.00607138
0.00555389
0.00529011
0.00488541
0.00455514
0.00441912
0.00360907
0.00382917
0.00266976
0.00299217
0.00196652
0.00135563
0.00133891
0.00101284
0.000391135
0
0.000323891
0
0.00154592
0
0
0.00134958
0
0.00166335
0
0.00482317
0
0.000299216
0.00168482
0
0.00637232
0
0.00226158
0
2.42879e-05
0.0136037
0.0401095
0.0645688
0
0.118424
0
0
0.0843263
0
0
0.000728525
0.055288
0.0654588
0
0
0
0.210592
0
0.0451925
0
0
0.0320188
0
0.0269258
0.0145857
0
0.00767326
0.0112633
0
0
0.0186625
0
0
0.0319915
0
0
0
0
0
0.00763723
0
0
0.0231631
0.0126298
0.0273935
0.00780197
0
0
0
0.0370853
0
0.0566505
0.0476503
0.0193085
0.0146917
0.000884452
0
0
0
0
0.0200631
0
0
0
0
0.0286716
0
0
0
0.126565
0
0
0
0.0379062
0.0149858
0.0147951
0.00384213
0.0637506
0
0.0287549
0
0
0
0
0
0
0
0
0
0
0
0
0
0
0
0
0
0
0
0
0
0
0
0
0
0
0
0
0
0
0
0
0
0.00338916
0
0
0.00322453
0.00107953
0
0.0014922
0.00449771
0.000279738
0.00247706
0.000881621
0.00274676
0.00188869
0.00281969
0.00295376
0.00258799
0.00304644
0.00331666
0.00364423
0.00308043
0.00387406
0.00373819
0.00392625
0.00451706
0.00434745
0.00420334
0.00456992
0.00506201
0.00524451
0.00524543
0.00517184
0.00528689
0.00564954
0.00581028
0.00599351
0.00625375
0.00657046
0.00672975
0.0067825
0.00874184
0.0109596
0.00792997
0.00437316
0.00659798
0.009613
0.0102801
0.0105352
0.0106622
0.0106161
0.0115946
0.0120313
0.011627
0.0113569
0.0124679
0.0128802
0.0123436
0.010815
0.00978294
0.00588947
0.00289175
0
0
0
0
0
0
0
0
0
0
0
0
0
0
0
0
0
0
0
0
0
0
0
0
0
0
0
0
0
0
0
0
0
0
0
0
0
0
0
0
0
0
0
0
0
0
0
0
0
0
0
0
0
0
0
0
0
0
0.253462
0.0441546
0
0
0
0
0
0
0
0
0
0
0
0
0
0
0
0
0
0
0
0
0.0756762
0.25583
0
0
0.110277
0
0
0
0.2106
0.126248
0
0
0.0172224
0
0
0
0
0
0
0
0.0116237
0.00814882
0
0
0.000343842
0.000168599
0
0
0
0
0
0
0
0
0
0
0
0
0
0
0
0
0
0
0
0.00324383
0
0
0.0391407
0.115907
0.115294
0.104211
0.0321904
0.0019015
0.00212881
0.00440198
0.00423668
0.0046088
0.00487265
0.00576581
0.00668654
0.00751005
0.00788635
0.00838372
0.00995908
0.0108372
0.00878706
0.0071903
0.0088863
0.0108262
0.00969098
0.00784674
0.00800216
0.0087132
0.00878366
0.00819301
0.00771917
0.00764335
0.00717822
0.00703952
0.00672147
0.00616435
0.00587845
0.00543835
0.00508957
0.00492043
0.00406565
0.00424435
0.00307726
0.00345722
0.00236179
0.00175571
0.0018744
0.000902152
0.000736018
0
0.000163414
0
0.000125841
0
0
0
0
0.002918
0.000173645
0.00313433
0
0
0
0
0
0.00294748
0.00721611
0
0.00727562
0
0
0.007485
0.0492722
0.0284309
0
0.0122346
0.0607226
0.00653746
0
0.00893
0.0320524
0.00834958
0.0220963
0.0233569
0
0
0.210085
0.323083
0
0.160349
0.0424909
0.00859367
0.0333377
0.0189455
0
0
0.00303077
0
0
0.046537
0
0.0280156
0
0
0
0
0
0
0.0134747
0
0.0294186
0.0144926
0
0.0249239
0
0.00819968
0
0.0342635
0.0314394
0.0418764
0
0
0.0131705
0
0.00453721
0.0514328
0.00287165
0.000843189
0
0.00592578
0.0229631
0
0.0275335
0
0.0159966
0.0274894
0
0.00243011
0.183323
0
0.111476
0
0.0360604
0.0259418
0.00948691
0.0214326
0.0403919
0
0.0096006
0
0
0
0
0
0
0
0
0
0
0
0
0
0
0
0
0
0
0
0
0
0
0
0
0
0
0
0
0
0
0
0
0.00169446
0
0
0
0.00257246
0.00101225
0
0
0.0032584
0.00403018
0.00344137
0
0.00275305
0.00287631
0.00284562
0.00262102
0.00300946
0.00324972
0.00354236
0.00372469
0.00353342
0.00414506
0.0040738
0.00427889
0.00486488
0.00475442
0.00452459
0.00490959
0.005488
0.00569295
0.0057264
0.00566132
0.00584849
0.00627362
0.00646617
0.00671344
0.00701968
0.00735294
0.0075748
0.00767632
0.00997014
0.0126496
0.00925275
0.00521047
0.00791134
0.0113969
0.0124207
0.0129775
0.0133294
0.0134729
0.0149753
0.015806
0.0156113
0.0160008
0.0179454
0.0187904
0.0182973
0.0165919
0.0151825
0.0088444
0.00589808
0
0
0
0
0
0
0
0
0
0
0
0
0
0
0
0
0
0
0
0
0
0
0
0
0
0
0
0
0
0
0
0
0
0
0
0
0
0
0
0
0
0
0
0
0
0
0
0
0
0
0
0
0
0
0
0
0
0
0.568321
0.130435
0
0
0
0
0
0
0
0
0
0
0
0
0
0
0
0
0
0
0.098964
0
0
0
0.300272
0.134846
0
0.101918
0
0
0
0
0.494227
0
0
0
0
0.192835
0
0
0
0
0.0229177
0.0292622
0.0135087
0.00687942
0.028633
0.0147875
0
0
0
0
0
0
0
0
0
0.00045581
0
0
0
0
0
0
0
0
0
0.00583574
0
0
0.0407689
0.151471
0.182651
0.132968
0.0393293
0.00579632
0.00382158
0.0049588
0.00398431
0.0042253
0.00451538
0.00557716
0.00666116
0.00762846
0.00809367
0.00868721
0.0104079
0.0114191
0.00932566
0.00763095
0.0094556
0.0114231
0.0102419
0.00833905
0.00851696
0.0092881
0.00938191
0.00878397
0.00833973
0.0082121
0.00773978
0.00753998
0.00721379
0.00665749
0.00635327
0.00586488
0.00556284
0.00531936
0.00457443
0.00473509
0.00362722
0.00369879
0.0030279
0.00196505
0.00191333
0.00147378
0.000820655
0
0
0.000411388
0
0.0010049
2.29375e-05
0
0
0.00167715
0.000517053
0
0.00182376
0.00110911
0
0
0
0.00145373
0
0
0.00516243
0.0124002
0
0
0
0
0.0550229
0.0467394
0.0115781
0.0556032
0
0
0
0.0134626
0.0219712
0
0
0.0101202
0.0701643
0
0
0.608153
0
0.225679
0.0608133
0.0302211
0
0
0
0
0
0.0041921
0
0
0.00859398
0
0.00624385
0
0.044727
0
0.000238669
0.0552016
0
0.0270238
0
0.0197099
0
0
0
0
0.0146795
0.0217985
0
0
0.0147689
0
0.00437115
0.00858593
0
0
0.0616746
0
0.0265587
0
0
0
0.00200367
0
0.00169246
0.032866
0.139279
0
0
0
0
0.00197274
0
0
0.0122321
0
0.00759646
0
0.00936315
0
0
0
0
0
0
0
0
0
0
0
0
0
0
0
0
0
0
0
0
0
0
0
0
0
0
0
0
0
0
0.00290439
0
0
0
0
0.000723372
0
0.000322554
0.00291186
0.00251658
0.00395388
0.000513076
0.00220569
0.00216993
0.00327177
0.00298702
0.0033097
0.00314914
0.00373627
0.00410674
0.00368047
0.00430188
0.00427473
0.00456842
0.0052346
0.00505932
0.00492341
0.00535488
0.00598353
0.00620663
0.00626942
0.00620194
0.00639871
0.00690127
0.00716408
0.00747055
0.00786867
0.00835357
0.00867456
0.00895269
0.0116742
0.0146357
0.0107707
0.00634104
0.00969686
0.014144
0.0156158
0.0167308
0.0175348
0.0182214
0.0206582
0.0224184
0.0230013
0.0244134
0.0285398
0.0304497
0.0316596
0.0300895
0.0298996
0.0248259
0.00832841
0
0
0
0
0
0
0
0
0
0
0
0
0
0
0
0
0
0
0
0
0
0
0
0
0
0
0
0
0
0
0
0
0
0
0
0
0
0
0
0
0
0
0
0
0
0
0
0
0
0
0
0
0
0
0
0
0.126243
0.141626
0.273513
0.000667833
0
0
0
0
0
0
0
0
0
0
0
0
0
0
0
0
0
0
0
0
0
0
0
0.181923
0
0
0.233438
0.205298
0
0
0
0.19681
0.500799
0
0
0.0705898
0
0
0
0
0.0790984
0.0556477
0.107027
0.0799818
0.0624185
0.0807855
0.0335928
0
0
0
0
0
0
0
0
0
0
0.0127936
0.0073875
0
0
0
0
0.00336473
0
0
0
0
0.0489459
0.188246
0.247598
0.159632
0.0509686
0.000747698
0.00178383
0.00491722
0.00380466
0.00390421
0.00417546
0.00536195
0.00664052
0.00774184
0.00828091
0.0089192
0.0107915
0.0118889
0.00966827
0.00789692
0.00974312
0.0119382
0.0108408
0.0088343
0.00895251
0.00974196
0.00982888
0.00919691
0.00873307
0.00861735
0.00817568
0.00798939
0.00768741
0.0071022
0.00677691
0.00627886
0.00595805
0.00568386
0.0049386
0.0049491
0.00395229
0.00410083
0.00319688
0.00257521
0.00246873
0.00154881
0.000437869
0.000227728
0
0
0.000287059
0.000433785
0
0.000158089
0.000441527
0.000733392
3.0914e-05
0.000638599
0
0.000667211
0
0.00120098
0.00219805
0
0
0
0.00279924
0.0130958
0
0
0
0
0
0.0275176
0.00966772
0
0.00492777
0
0
0
0.100538
0.051417
0
0
0
0
0.0035807
0.313929
0.0791574
0
0.242081
0.0199192
0
0.00118825
0
0
0
0.0079681
0.339688
0.277192
0
0
0
0
0.0599439
0
0.0113449
0
0
0.0157592
0
0.0210468
0.0441696
0
0
0
0.108691
0
0.0374575
0.0353854
0.0118471
0
0.00485083
0
0
0
0
0
0.0204061
0.0319904
0
0
0
0
0
0.00441642
0.142457
0.0307779
0
0
0.15231
0
0
0.05372
0.015308
0.0352146
0
0
0
0
0
0
0
0
0
0
0
0
0
0
0
0
0
0
0
0
0
0
0
0
0
0
0
0
0
0
0
0
0
0
0.00133351
0
0
0
0
0
0
0.00300898
0.00416804
0.00190865
0.0017781
0.00291828
0.00245551
0.00319836
0.00298556
0.00331466
0.00335728
0.00382378
0.00421472
0.00416421
0.0045184
0.00457699
0.00489886
0.00556816
0.00548365
0.00523746
0.00570965
0.00642566
0.00673271
0.00684399
0.00683168
0.00715871
0.00775389
0.00810208
0.00854814
0.00905414
0.00962042
0.0101069
0.0105802
0.0140019
0.017914
0.0135193
0.00841254
0.0129489
0.0186517
0.0213053
0.0238977
0.0260902
0.0286401
0.0343631
0.0404849
0.0436741
0.0526853
0.0728955
0.0746123
0.106901
0.0887439
0.157271
0.00897584
0.151808
0
0
0
0
0
0
0
0
0
0
0
0
0
0
0
0
0
0
0
0
0
0
0
0
0
0
0
0
0
0
0
0
0
0
0
0
0
0
0
0
0
0
0
0
0
0
0
0
0
0
0
0
0
0
0
0
0.0351837
0.0576789
0.56625
0.227802
0.222079
0
0
0
0
0
0
0
0
0
0
0
0
0
0
0
0
0
0
0
0.183586
0
0
0
0
0
0
0
0.163844
0.371253
0
0
0.0865077
0.474741
0
0
0
0
0
0
0.159241
0.0828987
0.121489
0.111017
0.0428908
0.053683
0.1746
0
0
0
0
0
0
0
0
0
0
0
0
0
0
0.0165541
0
0
0.00709083
0.0080235
0
0
0.0732251
0.244802
0.338415
0.204389
0.072622
0
0
0.00447336
0.00370992
0.00385159
0.00400779
0.00527831
0.00669038
0.00793274
0.00848582
0.00917501
0.0111667
0.0123976
0.0101683
0.00826903
0.0102186
0.0124066
0.0112415
0.00919641
0.00933019
0.0101772
0.0102865
0.00965116
0.00923592
0.00905243
0.00861075
0.00837778
0.00804969
0.00747749
0.00713234
0.00660793
0.00629867
0.00595508
0.00536831
0.00533877
0.00443524
0.00434873
0.00355999
0.00284061
0.00267136
0.00184647
0.000988572
4.88987e-05
0.000175396
0
0.000680871
0
0
0.00151317
5.00154e-05
0.00113004
0.000521221
0.000833924
0
0.000802054
9.25118e-05
0
0.00125038
0
0.00353979
0.000572613
0
0
0.00318329
0.0137874
0.00116268
0.0062285
0
0
0
0
0.0342372
0.032676
0
0
0.0232148
0.0162718
0
0
0
0.0214675
0.0261488
0.00358595
0
0.142
0
0.0368331
0.00140186
0.0039606
0
0
0
0.00399223
0
0
0
0
0
0
0.0161058
0
0
0
0
0
0.0328175
0.0240428
0
0
0.00292087
0.068721
0
0
0
0
0.0227376
0
0
0
0
0.0206043
0
0.010267
0.00511417
0
0
0
0
0.00686694
0
0.0132962
0.165166
0
0
0.186005
0.178156
0
0
0.0552422
0
0
0.00175764
0
0
0
0
0
0
0
0
0
0
0
0
0
0
0
0
0
0
0
0
0
0
0
0
0
0
0
0
0.0018079
0
0
0
0
0
0
0
0
0
0.00306592
0
0.00102187
0.00517782
0.00367767
0
0.00250404
0.00399053
0.00257702
0.00299042
0.00373035
0.00340484
0.0040054
0.0045063
0.00435576
0.00465743
0.00489705
0.0052389
0.00601001
0.00593156
0.00576316
0.00635793
0.00714184
0.00749962
0.00768577
0.00771034
0.00809246
0.00886798
0.00942656
0.0100376
0.0107996
0.0117472
0.0125502
0.013571
0.0181292
0.0231578
0.0182954
0.01251
0.0196522
0.0304115
0.035497
0.043212
0.0516497
0.0632929
0.0917166
0.108057
0.144125
0.187226
0.278225
0.272897
0.387218
0.309235
0.432943
0.086959
0.251121
0
0
0
0
0
0
0
0
0
0
0
0
0
0
0
0
0
0
0
0
0
0
0
0
0
0
0
0
0
0
0
0
0
0
0
0
0
0
0
0
0
0
0
0
0
0
0
0
0
0
0
0
0
0
0
0
0.15595
0.141885
0.500608
0.0255016
0
0
0
0
0
0
0
0
0
0
0
0
0
0
0
0
0
0
0
0
0
0.308414
0
0
0
0
0
0
0
0
0.0614376
0
0
0.0343408
0.159927
0
0
0
0
0
0.0520267
0.106588
0.155938
0.0370812
0.150521
0
0.119568
0
0
0
0
0
0
0
0.0376567
0.0661402
0
0
0
0
0
0
0
0
0
0.018937
0
0
0.138113
0.31043
0.440391
0.2688
0.10248
0
0
0.00627241
0.00431338
0.0039938
0.00396931
0.00539671
0.00704269
0.00841948
0.00898813
0.00965354
0.0117698
0.0130142
0.0105461
0.00855293
0.0104822
0.0128793
0.0118387
0.00969167
0.0097585
0.0105972
0.010674
0.00998655
0.00952038
0.00936811
0.00896597
0.00874214
0.00844817
0.00786729
0.00747963
0.00696785
0.00662168
0.00629159
0.00559056
0.00551433
0.00453476
0.00460059
0.00379662
0.00333194
0.00281511
0.00223212
0.00122086
0
0.000281856
0.000112036
0
0.000383982
0.000633314
0
0.000336632
0.00146959
0
0.00277375
0
0
0
0.00153458
0
0.00264349
0
0.00463041
0
0
0.00157764
0
0
0.0156096
0.00869905
0
0
0
0.0486266
0.0396389
0
0.0047627
0
0
0.0351442
0
0.00694346
0.0181865
0.000814092
0
0
0.0925869
0
0.0892927
0.00625211
0.00874738
0.0021403
0
0
0.000704358
0
0
0
0
0
0
0.00664584
0
0
0
0.0087444
0
0
0.0312577
0
0
0
0.09413
0
0.112007
0.0231548
0.0479574
0.00157577
0
0
0.0921526
0.00482759
0
0
0.00720822
0.0146034
0.0425021
0.018141
0
0.0123074
0.0171075
0.00892843
0
0.142305
0
0.0366302
0.0263536
0.384595
0
0.0221654
0.0148859
0
0.0327626
0
0
0
0
0
0
0
0
0
0
0
0
0
0
0
0
0
0
0
0
0
0
0
0
0
0
0
0
0
0
0
0
0
0
0
0
0
0
0
0.00416974
0
0.00210634
0.00131154
0.00180191
0.0037579
0.00141552
0.00348091
0.00370292
0.00268531
0.00347365
0.00377357
0.00415162
0.00497719
0.00473286
0.00512959
0.00530121
0.00575951
0.00655242
0.00664592
0.00634681
0.00700683
0.00800513
0.00855277
0.00885322
0.00904742
0.00973307
0.0107592
0.0116101
0.0126616
0.0138832
0.0153194
0.0169112
0.019223
0.0271287
0.0389621
0.0318778
0.024646
0.0459773
0.0606057
0.0981541
0.121186
0.162614
0.208244
0.302812
0.32137
0.414802
0.422023
0.476343
0.398106
0.443355
0.33542
0.411063
0.115995
0.296986
0
0
0
0
0
0
0
0
0
0
0
0
0
0
0
0
0
0
0
0
0
0
0
0
0
0
0
0
0
0
0
0
0
0
0
0
0
0
0
0
0
0
0
0
0
0
0
0
0
0
0
0
0
0
0
0
0.225694
0.308411
0.393533
0.158145
0.24293
0
0
0
0
0
0
0
0
0
0
0
0
0
0
0
0
0
0
0
0
0
0.280021
0
0
0
0
0
0
0
0
0
0.217566
0
0
0.0890949
0
0
0
0
0.0452651
0.0327343
0.255998
0.0203478
0.0856468
0.0897236
0.18611
0
0
0
0
0
0
0.0362354
0
0
0
0.073213
0.0995681
0
0
0
0
0
0
0.12838
0
0
0.436983
0.508874
0.596978
0.388956
0.142404
0
0.00211531
0.0112799
0.00694426
0.00542498
0.0049234
0.00632086
0.00804269
0.00948757
0.009883
0.010447
0.0125884
0.0139402
0.0113835
0.00911629
0.0111325
0.0134959
0.0123125
0.0100845
0.0101401
0.0110377
0.0111511
0.010451
0.010032
0.0097631
0.00935404
0.00909457
0.00875655
0.0081717
0.00776407
0.00722135
0.00685206
0.00647927
0.00596631
0.00579583
0.00503072
0.0048586
0.00384246
0.00358083
0.00296067
0.0024848
0.00118573
0.000592924
0.000759003
0.000833347
0
0.00129166
0
0
0.00147274
0.000359477
0
0.00373092
0
0
0.00285406
0.000829163
0
0.000752924
0
0
0.00307313
0.00744765
0
0
0
0
0.00566413
0.0286165
0.00149751
0
0
0.018741
0
0
0
0.0240538
0.0356273
0
0.00264577
0.00433788
0
0
0.0127316
0.0114287
0
0.0901659
0.0292741
0.0129985
0.00637373
0
0
0
0
0
0
0
0.0330093
0.00470447
0.0200508
0
0
0
0.00811812
0
0.0112759
0.0272297
0.0430924
0
0
0
0.0530579
0.0475923
0.0306653
0
0.0389726
0
0
0.00622409
0
0.00253022
0.00238597
0.0111807
0
0
0
0
0
0.00295748
0
0
0.152137
0
0.157134
0.131798
0.409725
0
0
0.0036768
0.0473395
0
0.0099929
0
0
0
0
0
0
0
0
0
0
0
0
0
0
0
0
0
0.00685373
0
0
0
0
0
0.0018438
0
0
0
0
0
0
0
0
0
0
0.000173576
0
0
0
0.00284895
0.000742429
0
0.00166215
0
0.00379029
0.00396475
0.00417728
0.00197056
0.00369311
0.0034673
0.00427749
0.00441794
0.00515793
0.00532075
0.00542179
0.0059347
0.00642771
0.00748758
0.00751447
0.00745923
0.00838255
0.00957053
0.0103119
0.0108774
0.0113509
0.0123938
0.0142
0.0161675
0.0184133
0.0215131
0.0260304
0.0313533
0.0397183
0.0644354
0.0951148
0.0782885
0.0890129
0.152781
0.186354
0.280588
0.34514
0.402247
0.42493
0.472693
0.438571
0.458432
0.440985
0.467368
0.425428
0.434927
0.385161
0.384082
0.164725
0.252906
0
0
0
0
0
0
0
0
0
0
0
0
0
0
0
0
0
0
0
0
0
0
0
0
0
0
0
0
0
0
0
0
0
0
0
0
0
0
0
0
0
0
0
0
0
0
0
0
0
0
0
0
0
0
0
0
0.156427
0.236867
0.602999
0.0548058
0
0
0
0
0
0
0
0
0
0
0
0
0
0
0
0
0
0
0
0
0
0
0.267839
0.123652
0
0
0
0
0
0
0.308674
0
0
0
0
0
0
0
0
0
0
0
0.0756929
0.0459019
0.0375052
0.198953
0.092451
0
0
0
0
0
0
0
0
0.076418
0
0
0.0402803
0
0
0.181809
0
0
0
0.201233
0
0
0.757193
0.707867
0.72701
0.539112
0.223138
0
0
0.0194518
0.0124066
0.00872682
0.00705393
0.00832954
0.0101695
0.0116019
0.0117768
0.0120639
0.0141985
0.0154085
0.0123281
0.00981213
0.0117137
0.0142841
0.0131977
0.0107747
0.0107387
0.0115921
0.0116339
0.0108381
0.0103234
0.0100695
0.00967522
0.00943214
0.00912004
0.00854111
0.00809363
0.00755191
0.00713346
0.00681313
0.00607611
0.00587584
0.0050148
0.00485977
0.00419623
0.00379943
0.00303117
0.00288679
0.00119886
0.00072755
0.000225098
0.000703316
0
0.00103855
0
7.19418e-06
0.00149905
0
0.000763761
0.00113414
0.000803856
0.000989381
0
0.00453978
0
0
0
0
0
0.00473975
0
0
0.00438331
0
0
0.00873497
0.014082
0.00790018
0
0
0.0594456
0.0287711
0
0
0.0301114
0.0150619
0
0
0.0150858
0
0.0186222
0
0
0.0738496
0.0504305
0.0353006
0.010742
0
0
0
0
0
0
0
0.0210331
0.00898426
0.0167596
0
0
0
0
0.00169134
0.0421022
0.0104777
0.0434425
0
0
0
0
0
0.0114632
0.0155806
0.0202001
0.0206884
0.00912173
0
0.0238918
0
0
0.00735378
0
0
0
0.0405972
0
0
0.0371901
0
0.0844704
0
0.105759
0.115242
0.337045
0
0
0
0.0321119
0
0.0277067
0
0
0
0
0
0
0
0
0
0
0
0
0
0
0
0
0
0
0
0
0
0
0
0
0
0
0
0
0
0.00123099
0
0
0
0
0
0
0
0
0.00586461
0.00394383
0.00139859
0
0.00141506
0.000507403
0.00405501
0.00551602
0.00228327
0.00309118
0.00376898
0.00464047
0.00514806
0.0056881
0.0060913
0.00630016
0.00688984
0.00759421
0.00880305
0.00923805
0.00919754
0.0104705
0.0125206
0.0142739
0.0158876
0.017786
0.0214425
0.026698
0.0328869
0.0412784
0.056903
0.0660192
0.0978858
0.130796
0.227632
0.297449
0.219756
0.234074
0.319779
0.350721
0.427403
0.439142
0.434407
0.435567
0.469515
0.441863
0.443702
0.433888
0.443718
0.397736
0.415796
0.375321
0.324672
0.18608
0.218052
0
0
0
0
0
0
0
0
0
0
0
0
0
0
0
0
0
0
0
0
0
0
0
0
0
0
0
0
0
0
0
0
0
0
0
0
0
0
0
0
0
0
0
0
0
0
0
0
0
0
0
0
0
0
0
0
0.341563
0.313939
0.458501
0.1643
0.267813
0
0
0
0
0
0
0
0
0
0
0
0
0
0
0
0
0
0
0
0
0
0
0
0
0
0
0
0.0619643
0
0
0
0
0
0
0
0
0
0
0
0.1166
0.145096
0
0.127215
0.0390147
0.182974
0.122465
0
0
0
0
0
0
0
0
0.0503342
0.0991059
0
0
0
0
0
0.196102
0.0935895
0
0.0701736
0
0
0.595583
0.913812
0.825142
0.689114
0.365788
0
0
0.0308611
0.0251531
0.0186346
0.0145434
0.0146561
0.0157634
0.0164266
0.0153464
0.0148428
0.0166378
0.0177907
0.0143195
0.0111483
0.0130506
0.0155253
0.0141207
0.0114647
0.0113463
0.0122572
0.0123293
0.0114919
0.0109852
0.0105666
0.0101116
0.00979177
0.0094502
0.0088576
0.00836788
0.00776319
0.00728703
0.00691619
0.00634829
0.00618329
0.00545095
0.00512635
0.00419309
0.00371513
0.00293055
0.00297597
0.00161628
0.00085077
0.000656624
0.00114396
0.000101684
7.92838e-06
0.000618264
0
0
0.00237173
0
1.37022e-05
0.00252054
0.00125902
0.000576639
0.000630062
0
0.00025942
0.00502973
0
0
0
0
0
0
0.000883133
0
0
0
0.0369093
0
0
0.00544773
0.0515078
0.00405406
0
0
0.0248239
0
0
0.00973679
0.00955394
0.0113263
0
0
0.0316629
0.222476
0.141448
0.0170669
0.00359528
0
0
0
0
0
0
0.0263483
0.0175492
0
0
0.000203127
0.000805459
0.0240196
0.0136256
0
0.0127934
0.0170356
0
0
0.0403868
0.00694839
0.00398453
0.0111448
0
0
0
0.00164878
0
0.00995458
0.0340107
0
0.00314167
0.00810188
0
0
0
0
0
0
0
0.0049843
0.109006
0.120729
0.117721
0.226627
0
0
0.118432
0.013347
0.0265948
0
0
0
0
0
0
0
0
0
0
0
0
0
0
0.0041199
0
0
0
0
0
0
0
0
0
0
0
0
0
0
0
0
0
0
0
0
0
0.000361729
0
0
0.0049808
0.00598461
0.000666126
0
0
0.00567867
0.00581653
0.00242841
0.00376926
0.0041845
0.00436495
0.00565488
0.00592152
0.00716268
0.00732148
0.00832899
0.00913432
0.0111647
0.0130772
0.0148632
0.0160118
0.0204018
0.0253204
0.0321426
0.0376418
0.050401
0.0582281
0.0881379
0.112648
0.143552
0.202848
0.210308
0.254834
0.281975
0.381305
0.389815
0.2571
0.260221
0.33796
0.35247
0.419857
0.41689
0.415389
0.407059
0.435321
0.407493
0.433576
0.418063
0.429142
0.36733
0.398141
0.37346
0.314095
0.15117
0.252353
0
0
0
0
0
0
0
0
0
0
0
0
0
0
0
0
0
0
0
0
0
0
0
0
0
0
0
0
0
0
0
0
0
0
0
0
0
0
0
0
0
0
0
0
0
0
0
0
0
0
0
0
0
0
0
0.0221735
0.213371
0.286397
0.67538
0.0855047
0
0
0
0
0
0
0
0
0
0
0
0
0
0
0
0
0
0
0
0
0
0
0
0
0
0.243554
0
0
0
0.214688
0
0
0
0.0152759
0.316423
0.0993565
0
0
0
0
0.109009
0.236855
0.152235
0.137997
0.0751073
0.163748
0.107193
0
0
0
0
0
0
0.023303
0
0
0.0101774
0.359117
0
0
0
0
0
0.165162
0
0.0694828
0
0
0.372887
0.972525
0.878332
0.790609
0.587807
0
0
0.0722553
0.0464008
0.0386219
0.034221
0.0358825
0.0358295
0.0348993
0.0301332
0.0260644
0.0251237
0.023629
0.0174744
0.0131312
0.0146444
0.0172844
0.015815
0.012745
0.0124293
0.0132114
0.0131438
0.0121374
0.0114608
0.0110129
0.0105219
0.0102218
0.00987041
0.0092905
0.00872415
0.00808294
0.00761715
0.00723883
0.00647315
0.00603222
0.00536902
0.00508094
0.00426534
0.00408317
0.00306348
0.00302615
0.00144435
0.000894345
0.000522876
0.000815184
0.00034256
0.000337044
0.000930448
0
0
0.00190285
0
0.00202399
0.00242487
0
0.00253674
0.000872621
0.00149964
0
0
0.00351813
0.000169065
0
0
0.00256929
0
0.00100806
0.00948859
0
0
0.00318223
0.00426034
0.0184237
0
0
0.0241802
0.025131
0
0
0.0077159
0
0
0
0
0.00957512
0
0.00259352
0.0782731
0.0842396
0.0239186
0.00906381
0
0
0
0
0.0319402
0
0.0375727
0
0
0
0
0
0.0161333
0.0152668
0
0
0.0118185
0
0.0505794
0.0263195
0.103193
0
0.00467698
0
0
0.0370468
0.00328851
0.010092
0.00768617
0.000806328
0.0508556
0
0
0
0
0
0
0
0.0611524
0
0
0.0994233
0.121934
0.0885077
0.190382
0
0.342872
0.213108
0
0
0
0
0
0
0
0
0
0
0
0
0
0
0
0
0
0
0
0
0.000959309
0
0
0
0
0
0
0
0.00453826
0
0
0
0
0
0
0
0
0.0125055
0
0.00113369
0
0
0.00531205
0.00552786
0
0
0.00939837
0.00750626
0.00426186
0.00690051
0.00576259
0.00809315
0.0102106
0.0123642
0.0132728
0.0166048
0.0187723
0.0224276
0.0282962
0.0371656
0.0434306
0.0559665
0.0620092
0.095111
0.130321
0.144268
0.197385
0.203723
0.236998
0.256633
0.267474
0.283509
0.282612
0.305672
0.319821
0.408766
0.411672
0.299352
0.290128
0.355989
0.364521
0.417993
0.432358
0.441726
0.443202
0.465438
0.438536
0.453555
0.454276
0.462687
0.375549
0.402465
0.39017
0.321231
0.134724
0.167028
0
0
0
0
0
0
0
0
0
0
0
0
0
0
0
0
0
0
0
0
0
0
0
0
0
0
0
0
0
0
0
0
0
0
0
0
0
0
0
0
0
0
0
0
0
0
0
0
0
0
0
0
0
0
0
0.353467
0.423464
0.320618
0.537472
0.174548
0.261568
0
0
0
0
0
0
0
0
0
0
0
0
0
0
0
0
0
0
0
0
0
0
0
0
0
0
0
0
0
0
0
0
0
0
0.219647
0
0
0
0
0
0.0855392
0.111483
0.0951805
0.12835
0.193428
0.120866
0
0
0
0
0
0
0
0.0344245
0
0
0
0.185618
0.130723
0
0.218167
0
0
0.129765
0.32388
0
0
0.177708
0.983481
0.930543
0.888206
0.761707
0
0
0.158603
0.0919697
0.0712844
0.0678028
0.0752193
0.0912792
0.0930797
0.0835475
0.0662591
0.056631
0.0519604
0.0349999
0.0235823
0.0229222
0.0231895
0.0191824
0.0145634
0.0137811
0.0145028
0.0142867
0.01311
0.0123755
0.0116985
0.0110848
0.0106615
0.0102706
0.00968191
0.00906644
0.00836259
0.00773024