/*--------------------------------*- C++ -*----------------------------------*\
| =========                 |                                                 |
| \\      /  F ield         | OpenFOAM: The Open Source CFD Toolbox           |
|  \\    /   O peration     | Version:  v2006                                 |
|   \\  /    A nd           | Website:  www.openfoam.com                      |
|    \\/     M anipulation  |                                                 |
\*---------------------------------------------------------------------------*/
FoamFile
{
    version     2.0;
    format      ascii;
    class       volScalarField;
    location    "100";
    object      nut;
}
// * * * * * * * * * * * * * * * * * * * * * * * * * * * * * * * * * * * * * //

dimensions      [0 2 -1 0 0 0 0];


internalField   nonuniform List<scalar> 
93840
(
2.85594e-08
2.84502e-08
2.89501e-08
2.81565e-08
2.91133e-08
2.8842e-08
2.90899e-08
2.95032e-08
2.97773e-08
2.93615e-08
3.00134e-08
3.00926e-08
3.01746e-08
3.0376e-08
2.94185e-08
2.61682e-08
1.68895e-08
8.5854e-09
8.11135e-09
1.2134e-08
1.1609e-07
1.47433e-06
5.70594e-06
1.26735e-05
1.65319e-05
1.6127e-05
1.41021e-05
1.46964e-05
1.44403e-05
1.42605e-05
1.33469e-05
1.27185e-05
1.29535e-05
1.24156e-05
1.23808e-05
1.22655e-05
1.20243e-05
1.20588e-05
1.17631e-05
1.18374e-05
1.15575e-05
1.16433e-05
1.13831e-05
1.14411e-05
1.12115e-05
1.12372e-05
1.10495e-05
1.10512e-05
1.0893e-05
1.08717e-05
1.07414e-05
1.07085e-05
1.05797e-05
1.05218e-05
1.04603e-05
1.0454e-05
1.03646e-05
1.03039e-05
1.0194e-05
1.01586e-05
1.00995e-05
1.00534e-05
9.9865e-06
1.00025e-05
9.9678e-06
9.97321e-06
9.95723e-06
9.98998e-06
9.97807e-06
1.00027e-05
1.00271e-05
1.00526e-05
1.00918e-05
1.01403e-05
1.01848e-05
1.02445e-05
1.02949e-05
1.03675e-05
1.0438e-05
1.05181e-05
1.05772e-05
1.06523e-05
1.07191e-05
1.08154e-05
1.09069e-05
1.09931e-05
1.10856e-05
1.11806e-05
1.12652e-05
1.13609e-05
1.14828e-05
1.16151e-05
1.17436e-05
1.18808e-05
1.20207e-05
1.21836e-05
1.23397e-05
1.25035e-05
1.26689e-05
1.28583e-05
1.30541e-05
1.32393e-05
1.34374e-05
1.38108e-05
1.41766e-05
1.4277e-05
1.43581e-05
1.46466e-05
1.49536e-05
1.52556e-05
1.5562e-05
1.58671e-05
1.61689e-05
1.65351e-05
1.68684e-05
1.72026e-05
1.75126e-05
1.78745e-05
1.81704e-05
1.84852e-05
1.87323e-05
1.90199e-05
1.91635e-05
1.93579e-05
1.93468e-05
1.93512e-05
1.94404e-05
1.923e-05
1.93138e-05
1.92111e-05
1.90602e-05
1.90303e-05
1.88604e-05
1.88477e-05
1.87242e-05
1.86749e-05
1.85245e-05
1.84919e-05
1.83854e-05
1.83659e-05
1.83088e-05
1.82536e-05
1.81589e-05
1.81078e-05
1.80642e-05
1.80139e-05
1.79724e-05
1.79291e-05
1.78477e-05
1.77673e-05
1.76903e-05
1.76089e-05
1.75189e-05
1.74214e-05
1.73025e-05
1.71831e-05
1.70444e-05
1.68912e-05
1.67058e-05
1.65365e-05
1.6382e-05
1.62199e-05
1.60003e-05
1.57526e-05
1.54595e-05
1.51471e-05
1.47862e-05
1.43419e-05
1.3537e-05
1.18079e-05
8.5965e-06
6.01936e-06
9.15752e-06
1.04241e-05
3.56556e-06
1.27565e-09
4.9256e-07
1.35921e-06
3.25832e-07
3.28276e-08
4.3305e-07
3.49958e-08
4.98914e-08
7.01982e-08
5.83503e-07
7.6613e-07
2.42945e-07
1.30323e-08
4.0089e-06
1.32556e-05
7.45744e-06
1.33268e-06
1.24341e-05
2.16954e-05
2.54242e-05
2.66705e-05
2.76897e-05
2.85891e-05
2.93036e-05
2.96512e-05
2.96925e-05
2.96946e-05
2.96065e-05
2.9609e-05
2.9538e-05
2.94461e-05
2.93371e-05
2.9249e-05
2.91441e-05
2.90177e-05
2.88904e-05
2.87556e-05
2.86274e-05
2.85064e-05
2.8394e-05
2.82609e-05
2.81057e-05
2.79694e-05
2.78179e-05
2.76808e-05
2.76638e-05
2.76086e-05
2.74694e-05
2.73154e-05
2.71258e-05
2.69362e-05
2.67473e-05
2.65764e-05
2.63894e-05
2.61992e-05
2.61026e-05
2.61762e-05
2.60967e-05
2.61577e-05
2.60711e-05
2.60098e-05
2.58687e-05
2.57826e-05
2.56451e-05
2.56077e-05
2.54818e-05
2.54941e-05
2.53706e-05
2.54461e-05
2.53378e-05
2.53949e-05
2.5264e-05
2.54396e-05
2.51317e-05
2.52174e-05
2.52405e-05
2.54219e-05
2.49858e-05
2.39578e-05
2.06065e-05
1.56814e-05
1.30429e-05
1.29113e-05
1.30675e-05
1.32481e-05
1.32688e-05
1.33114e-05
1.33138e-05
1.32898e-05
1.323e-05
1.31324e-05
1.30375e-05
1.28755e-05
1.25422e-05
1.22356e-05
1.21901e-05
1.2101e-05
1.17711e-05
1.13603e-05
1.1156e-05
1.10077e-05
1.07609e-05
1.04225e-05
1.0125e-05
9.83977e-06
9.55136e-06
9.25545e-06
8.95943e-06
8.65935e-06
8.35569e-06
8.04623e-06
7.75269e-06
7.43878e-06
7.10873e-06
6.70291e-06
6.24429e-06
5.68184e-06
5.09388e-06
4.4907e-06
3.91667e-06
3.08312e-06
1.83756e-06
5.37504e-07
1.87581e-08
5.89331e-09
7.59668e-09
5.45854e-09
4.81914e-09
5.57327e-09
6.69875e-09
9.1362e-09
1.25918e-08
1.85898e-08
2.29067e-08
2.27568e-08
1.68636e-08
1.40887e-08
8.21452e-09
7.24602e-09
5.72597e-09
4.5879e-09
3.76248e-09
2.50829e-09
2.45356e-09
2.36418e-09
2.04831e-09
1.77346e-09
1.45234e-09
1.30146e-09
1.74008e-09
1.63109e-09
1.40977e-09
1.31123e-09
2.28617e-09
7.6842e-09
2.17704e-08
1.45015e-07
6.97678e-07
1.60707e-06
2.76713e-06
2.95872e-06
8.65642e-06
1.33294e-05
1.66463e-05
1.79619e-05
1.81431e-05
1.74558e-05
1.40819e-05
1.56189e-05
1.41645e-05
7.43893e-06
2.17106e-06
1.81653e-07
1.59025e-08
5.83326e-09
1.40797e-08
2.38382e-08
2.79051e-08
2.86755e-08
2.9434e-08
2.98146e-08
2.99564e-08
3.0048e-08
2.95898e-08
2.96454e-08
2.95251e-08
2.89517e-08
2.87087e-08
2.91302e-08
2.81548e-08
2.88686e-08
2.83841e-08
2.84392e-08
2.84128e-08
2.83341e-08
2.88991e-08
2.81305e-08
2.90873e-08
2.86335e-08
2.89178e-08
2.96581e-08
2.96458e-08
2.95744e-08
2.99787e-08
2.98757e-08
2.98499e-08
2.95779e-08
3.00186e-08
3.37593e-08
4.57006e-08
7.04604e-08
9.71845e-08
9.37882e-08
9.30371e-08
7.77219e-07
3.98261e-06
1.02523e-05
1.5356e-05
1.70879e-05
1.66973e-05
1.57264e-05
1.48055e-05
1.42251e-05
1.35207e-05
1.31775e-05
1.29582e-05
1.28683e-05
1.30824e-05
1.27668e-05
1.30978e-05
1.27479e-05
1.31331e-05
1.27351e-05
1.31583e-05
1.2765e-05
1.31976e-05
1.27912e-05
1.32462e-05
1.28386e-05
1.32695e-05
1.289e-05
1.32898e-05
1.29386e-05
1.32873e-05
1.29801e-05
1.3276e-05
1.29936e-05
1.32492e-05
1.30184e-05
1.3267e-05
1.3051e-05
1.32388e-05
1.30579e-05
1.32382e-05
1.31343e-05
1.33157e-05
1.32558e-05
1.3482e-05
1.34998e-05
1.36995e-05
1.37495e-05
1.39437e-05
1.40124e-05
1.42332e-05
1.43636e-05
1.45685e-05
1.47205e-05
1.49756e-05
1.51453e-05
1.53736e-05
1.5587e-05
1.58279e-05
1.60232e-05
1.62549e-05
1.64314e-05
1.66016e-05
1.6773e-05
1.69595e-05
1.71011e-05
1.72555e-05
1.74357e-05
1.75712e-05
1.76752e-05
1.78155e-05
1.79323e-05
1.8065e-05
1.81622e-05
1.82574e-05
1.83949e-05
1.84988e-05
1.86033e-05
1.86799e-05
1.87812e-05
1.89117e-05
1.89725e-05
1.90259e-05
1.91251e-05
1.9251e-05
1.93515e-05
1.9341e-05
1.93926e-05
1.94515e-05
1.94569e-05
1.95072e-05
1.95131e-05
1.95057e-05
1.94958e-05
1.94719e-05
1.94224e-05
1.93707e-05
1.93131e-05
1.92115e-05
1.91449e-05
1.90068e-05
1.89064e-05
1.87351e-05
1.85996e-05
1.84017e-05
1.82605e-05
1.804e-05
1.78772e-05
1.76836e-05
1.74689e-05
1.72911e-05
1.70915e-05
1.69018e-05
1.67172e-05
1.65053e-05
1.63308e-05
1.6127e-05
1.59638e-05
1.57543e-05
1.55913e-05
1.53726e-05
1.51967e-05
1.49874e-05
1.48122e-05
1.45959e-05
1.44028e-05
1.41703e-05
1.39527e-05
1.37047e-05
1.3477e-05
1.32143e-05
1.29501e-05
1.2644e-05
1.2323e-05
1.19598e-05
1.1577e-05
1.11304e-05
1.06214e-05
1.00142e-05
9.36678e-06
8.70323e-06
8.05597e-06
7.24874e-06
6.02907e-06
4.55687e-06
3.64335e-06
3.67411e-06
3.82683e-06
3.08932e-06
1.42702e-06
2.86185e-08
3.77112e-08
6.06123e-07
4.11606e-07
9.15981e-08
2.52986e-09
6.06081e-08
2.22679e-08
3.22809e-08
1.22848e-07
4.02313e-09
9.70548e-08
7.24778e-08
1.78106e-08
6.32389e-09
1.11285e-07
1.36025e-07
7.80079e-08
8.8021e-09
2.63672e-07
6.19787e-12
1.5381e-07
4.2919e-07
3.5633e-06
5.39382e-06
4.34525e-06
3.88161e-06
6.16628e-06
9.53633e-06
1.16517e-05
1.27289e-05
1.38728e-05
1.52688e-05
1.64894e-05
1.74142e-05
1.82498e-05
1.90508e-05
1.97552e-05
2.03556e-05
2.08404e-05
2.12294e-05
2.15654e-05
2.18521e-05
2.21155e-05
2.23332e-05
2.25513e-05
2.27395e-05
2.29027e-05
2.30581e-05
2.32234e-05
2.33582e-05
2.3518e-05
2.36531e-05
2.3834e-05
2.39637e-05
2.414e-05
2.42383e-05
2.43785e-05
2.45025e-05
2.45998e-05
2.47366e-05
2.47949e-05
2.49537e-05
2.50528e-05
2.51929e-05
2.53291e-05
2.54689e-05
2.55755e-05
2.57551e-05
2.58241e-05
2.59779e-05
2.6149e-05
2.61668e-05
2.63778e-05
2.64544e-05
2.66158e-05
2.66389e-05
2.66798e-05
2.72632e-05
2.70138e-05
2.64513e-05
2.81486e-05
2.7577e-05
2.64036e-05
2.67225e-05
2.82638e-05
3.08588e-05
3.18708e-05
3.09049e-05
2.94306e-05
2.82286e-05
2.72966e-05
2.65428e-05
2.59055e-05
2.54572e-05
2.50825e-05
2.47854e-05
2.44303e-05
2.40904e-05
2.39024e-05
2.37401e-05
2.33922e-05
2.28925e-05
2.24947e-05
2.22145e-05
2.18684e-05
2.14803e-05
2.11117e-05
2.08342e-05
2.05199e-05
2.02165e-05
1.99193e-05
1.96617e-05
1.94084e-05
1.91571e-05
1.89094e-05
1.86298e-05
1.83307e-05
1.78386e-05
1.70875e-05
1.58745e-05
1.42338e-05
1.22659e-05
1.04131e-05
8.83068e-06
7.31965e-06
6.04663e-06
5.18678e-06
4.20413e-06
3.46983e-06
2.66998e-06
1.76961e-06
1.18593e-06
1.07035e-06
1.13266e-06
1.19843e-06
1.39894e-06
1.64647e-06
1.83781e-06
1.5503e-06
1.04002e-06
6.22276e-07
3.43072e-07
3.34393e-07
4.15081e-07
3.49021e-07
3.21122e-07
1.77231e-07
2.90338e-07
3.08724e-07
2.96527e-07
2.81234e-07
2.15144e-07
2.08202e-07
3.60734e-07
3.88745e-07
4.06691e-07
5.25436e-07
6.79537e-07
9.25303e-07
1.9152e-06
3.67804e-06
5.86039e-06
8.18685e-06
1.19182e-05
1.68951e-05
1.93381e-05
2.27962e-05
2.62467e-05
2.89795e-05
2.91331e-05
2.9357e-05
2.14636e-05
1.54112e-05
1.49633e-05
9.60475e-06
3.43267e-06
4.84675e-07
1.05553e-07
9.43547e-08
4.5902e-08
2.85264e-08
2.91315e-08
2.9467e-08
3.00174e-08
2.99698e-08
3.00387e-08
3.00404e-08
2.94971e-08
2.95432e-08
2.95574e-08
2.9164e-08
2.87908e-08
2.91406e-08
2.82399e-08
2.9001e-08
2.84043e-08
2.85133e-08
2.85229e-08
2.84176e-08
2.89888e-08
2.82121e-08
2.90819e-08
2.87671e-08
2.8996e-08
2.95385e-08
2.9622e-08
2.96041e-08
3.01075e-08
2.99022e-08
3.00911e-08
3.02093e-08
2.96803e-08
3.10242e-08
3.20589e-08
2.75256e-08
1.47031e-08
1.40476e-08
2.63216e-08
1.88794e-07
2.29598e-06
7.37451e-06
1.30933e-05
1.60915e-05
1.78182e-05
1.82539e-05
1.78288e-05
1.76359e-05
1.71021e-05
1.69686e-05
1.66411e-05
1.67911e-05
1.66345e-05
1.6824e-05
1.67115e-05
1.68787e-05
1.6872e-05
1.69467e-05
1.70395e-05
1.70724e-05
1.72112e-05
1.71843e-05
1.74059e-05
1.73056e-05
1.75519e-05
1.74271e-05
1.76741e-05
1.75203e-05
1.77613e-05
1.76009e-05
1.78076e-05
1.76493e-05
1.78417e-05
1.77139e-05
1.79116e-05
1.77757e-05
1.79374e-05
1.78468e-05
1.80502e-05
1.80624e-05
1.8318e-05
1.83998e-05
1.87621e-05
1.89247e-05
1.92427e-05
1.94287e-05
1.97717e-05
1.9995e-05
2.04222e-05
2.07336e-05
2.11217e-05
2.1483e-05
2.19911e-05
2.23499e-05
2.28117e-05
2.3269e-05
2.37259e-05
2.41118e-05
2.45448e-05
2.48518e-05
2.51383e-05
2.54332e-05
2.57228e-05
2.59123e-05
2.6135e-05
2.63907e-05
2.65113e-05
2.65728e-05
2.67151e-05
2.67686e-05
2.68537e-05
2.68394e-05
2.68364e-05
2.69085e-05
2.68861e-05
2.68485e-05
2.6756e-05
2.67137e-05
2.67137e-05
2.65384e-05
2.63923e-05
2.63066e-05
2.62607e-05
2.61594e-05
2.58446e-05
2.565e-05
2.54268e-05
2.50887e-05
2.48675e-05
2.4521e-05
2.41668e-05
2.37917e-05
2.34134e-05
2.29634e-05
2.25592e-05
2.21184e-05
2.16561e-05
2.12589e-05
2.07848e-05
2.03829e-05
1.99495e-05
1.95462e-05
1.91661e-05
1.87711e-05
1.83502e-05
1.80204e-05
1.75689e-05
1.72128e-05
1.68189e-05
1.64377e-05
1.60455e-05
1.56478e-05
1.52371e-05
1.48539e-05
1.44403e-05
1.4049e-05
1.3611e-05
1.32017e-05
1.27404e-05
1.23144e-05
1.18544e-05
1.13995e-05
1.09006e-05
1.03989e-05
9.83034e-06
9.24966e-06
8.60964e-06
7.97074e-06
7.27072e-06
6.57663e-06
5.84406e-06
5.11487e-06
4.35506e-06
3.68218e-06
3.13562e-06
2.68368e-06
2.0375e-06
1.28445e-06
8.64489e-07
8.57644e-07
5.38749e-07
1.17487e-07
5.48858e-08
8.37923e-08
3.5899e-08
1.51671e-08
1.78095e-08
4.02958e-08
1.04567e-07
9.05515e-08
3.97995e-08
5.17303e-08
6.04633e-08
6.16099e-08
4.82609e-08
4.6341e-08
3.56412e-08
3.23701e-08
1.08841e-07
5.45751e-08
1.64542e-08
1.14144e-07
1.18592e-07
3.44162e-08
1.97519e-08
3.28768e-08
5.36119e-08
3.02045e-08
2.97e-08
1.91942e-07
6.1361e-08
1.5561e-08
3.5408e-07
2.13404e-07
7.07527e-11
4.39498e-08
1.26037e-06
1.38424e-06
9.54125e-07
1.7699e-06
2.96494e-06
3.66119e-06
4.09752e-06
4.84104e-06
5.92058e-06
7.09826e-06
8.23152e-06
9.40112e-06
1.0613e-05
1.18442e-05
1.30246e-05
1.41462e-05
1.51453e-05
1.60698e-05
1.68773e-05
1.75874e-05
1.82322e-05
1.88797e-05
1.94758e-05
2.00627e-05
2.05723e-05
2.11832e-05
2.16764e-05
2.22904e-05
2.27457e-05
2.3248e-05
2.37906e-05
2.41694e-05
2.4798e-05
2.50985e-05
2.56846e-05
2.60459e-05
2.65089e-05
2.69139e-05
2.73785e-05
2.76907e-05
2.82855e-05
2.85444e-05
2.90438e-05
2.95605e-05
2.97651e-05
3.03035e-05
3.06647e-05
3.10566e-05
3.12682e-05
3.14073e-05
3.26822e-05
3.2533e-05
3.12382e-05
3.45809e-05
3.40593e-05
3.18942e-05
3.4241e-05
3.80625e-05
4.25952e-05
4.48803e-05
4.45076e-05
4.32789e-05
4.21804e-05
4.13002e-05
4.05372e-05
3.98506e-05
3.94626e-05
3.91824e-05
3.90186e-05
3.87447e-05
3.84117e-05
3.83346e-05
3.84232e-05
3.81388e-05
3.73783e-05
3.66686e-05
3.63036e-05
3.58626e-05
3.53345e-05
3.47669e-05
3.44309e-05
3.40313e-05
3.36605e-05
3.32997e-05
3.30495e-05
3.28228e-05
3.26169e-05
3.24028e-05
3.21137e-05
3.17725e-05
3.0963e-05
2.95105e-05
2.7102e-05
2.39234e-05
2.03257e-05
1.68251e-05
1.3869e-05
1.15042e-05
9.27752e-06
7.83482e-06
6.64636e-06
5.5556e-06
4.4811e-06
3.21211e-06
2.27208e-06
2.13433e-06
2.39076e-06
2.54867e-06
2.79632e-06
3.22641e-06
3.8153e-06
3.82547e-06
3.14746e-06
2.11758e-06
9.37601e-07
8.97772e-07
7.65477e-07
5.28671e-07
4.0574e-07
2.73113e-07
6.03084e-07
5.97186e-07
5.92114e-07
6.74326e-07
6.186e-07
7.11151e-07
9.12184e-07
9.93557e-07
1.04851e-06
9.30691e-07
1.06466e-06
1.84692e-06
3.82916e-06
6.43403e-06
9.0077e-06
1.09901e-05
1.32776e-05
1.69388e-05
2.13356e-05
2.54882e-05
3.02823e-05
3.49089e-05
3.76613e-05
3.83217e-05
3.68699e-05
2.30447e-05
1.64589e-05
1.144e-05
4.69018e-06
1.14637e-06
9.67169e-08
4.48148e-08
4.66158e-08
3.81591e-08
3.11004e-08
2.93133e-08
2.9454e-08
2.97772e-08
3.00079e-08
3.01805e-08
2.93825e-08
2.95939e-08
2.95455e-08
2.9132e-08
2.8679e-08
2.91183e-08
2.82018e-08
2.8937e-08
2.84357e-08
2.85111e-08
2.84328e-08
2.83417e-08
2.88328e-08
2.80896e-08
2.90676e-08
2.86349e-08
2.89349e-08
2.94873e-08
2.94862e-08
2.95825e-08
2.99837e-08
2.98663e-08
2.98214e-08
2.98819e-08
3.01908e-08
3.26608e-08
3.23254e-08
2.2666e-08
9.24103e-09
7.2727e-09
2.38975e-08
8.50453e-08
1.31433e-06
5.27144e-06
1.0805e-05
1.42014e-05
1.6061e-05
1.73721e-05
1.77894e-05
1.81736e-05
1.8142e-05
1.82686e-05
1.82533e-05
1.83176e-05
1.84111e-05
1.84365e-05
1.8597e-05
1.86103e-05
1.87988e-05
1.88214e-05
1.90085e-05
1.90448e-05
1.92196e-05
1.92568e-05
1.9438e-05
1.94446e-05
1.96233e-05
1.96094e-05
1.97728e-05
1.97415e-05
1.98968e-05
1.98522e-05
1.99841e-05
1.99508e-05
2.00661e-05
2.00447e-05
2.01672e-05
2.01565e-05
2.02951e-05
2.03517e-05
2.05647e-05
2.07362e-05
2.10401e-05
2.12896e-05
2.17029e-05
2.19968e-05
2.23593e-05
2.26813e-05
2.31163e-05
2.34964e-05
2.40558e-05
2.45077e-05
2.50143e-05
2.5557e-05
2.62221e-05
2.67214e-05
2.7347e-05
2.79717e-05
2.85452e-05
2.90616e-05
2.95999e-05
2.99776e-05
3.03271e-05
3.06938e-05
3.10123e-05
3.12151e-05
3.14631e-05
3.17388e-05
3.17977e-05
3.1817e-05
3.193e-05
3.18918e-05
3.18991e-05
3.17686e-05
3.16686e-05
3.16518e-05
3.14822e-05
3.13002e-05
3.10513e-05
3.08767e-05
3.07305e-05
3.03475e-05
3.00541e-05
2.97788e-05
2.94948e-05
2.91734e-05
2.86479e-05
2.82609e-05
2.77734e-05
2.7153e-05
2.67055e-05
2.60632e-05
2.54449e-05
2.47846e-05
2.41298e-05
2.33758e-05
2.27249e-05
2.19978e-05
2.12879e-05
2.0659e-05
1.99593e-05
1.9346e-05
1.87292e-05
1.81194e-05
1.7608e-05
1.70069e-05
1.64547e-05
1.59478e-05
1.53415e-05
1.48195e-05
1.42518e-05
1.37188e-05
1.31373e-05
1.25808e-05
1.1973e-05
1.14237e-05
1.08105e-05
1.0233e-05
9.56473e-06
8.92086e-06
8.18386e-06
7.46429e-06
6.6947e-06
5.92007e-06
5.14155e-06
4.40492e-06
3.67566e-06
2.99399e-06
2.3435e-06
1.80679e-06
1.3255e-06
8.91677e-07
5.08883e-07
3.14928e-07
1.89355e-07
8.42993e-08
4.65286e-08
6.78953e-08
4.7503e-08
2.04672e-08
2.16405e-08
3.59704e-08
2.52495e-08
2.51876e-08
2.98821e-08
2.58386e-08
4.13295e-08
6.30537e-08
4.21009e-08
3.36122e-08
2.51145e-08
2.12902e-08
2.99582e-08
2.93634e-08
2.59424e-08
3.71498e-08
4.29259e-08
6.01185e-08
6.41877e-08
5.61489e-08
2.64947e-08
5.93825e-08
8.48845e-08
4.96206e-08
6.92355e-08
1.08978e-07
4.43798e-08
4.45957e-08
2.77255e-08
2.06249e-08
6.2342e-09
1.29513e-08
4.35682e-09
1.68508e-09
9.30138e-09
1.58658e-08
2.21343e-09
6.80127e-09
2.42814e-08
1.16435e-08
3.85173e-09
1.23629e-08
1.51221e-08
4.07137e-08
2.56363e-08
5.18934e-08
1.46944e-07
3.48411e-07
6.26766e-07
1.09962e-06
1.68089e-06
2.41011e-06
3.17285e-06
4.08319e-06
5.10838e-06
6.26538e-06
7.38623e-06
8.46706e-06
9.59897e-06
1.07873e-05
1.19761e-05
1.31185e-05
1.4104e-05
1.51979e-05
1.60985e-05
1.71279e-05
1.79406e-05
1.87382e-05
1.96777e-05
2.02824e-05
2.13448e-05
2.18952e-05
2.28741e-05
2.35232e-05
2.43095e-05
2.49478e-05
2.57285e-05
2.6188e-05
2.71318e-05
2.75596e-05
2.83277e-05
2.91227e-05
2.95402e-05
3.03002e-05
3.09666e-05
3.1536e-05
3.19602e-05
3.2224e-05
3.38834e-05
3.40276e-05
3.23431e-05
3.63541e-05
3.61891e-05
3.43402e-05
3.80665e-05
4.36056e-05
4.85648e-05
5.10028e-05
5.08337e-05
4.99682e-05
4.92298e-05
4.86379e-05
4.80905e-05
4.75363e-05
4.73211e-05
4.72348e-05
4.7271e-05
4.71995e-05
4.70529e-05
4.71129e-05
4.73474e-05
4.72094e-05
4.64902e-05
4.56663e-05
4.52033e-05
4.46768e-05
4.41203e-05
4.34926e-05
4.31493e-05
4.27376e-05
4.23572e-05
4.19833e-05
4.17622e-05
4.1592e-05
4.14673e-05
4.13537e-05
4.11115e-05
4.08361e-05
4.00068e-05
3.83776e-05
3.55968e-05
3.17446e-05
2.72961e-05
2.27524e-05
1.85846e-05
1.53976e-05
1.24876e-05
1.0244e-05
8.77107e-06
7.7211e-06
6.63038e-06
5.03035e-06
3.35578e-06
2.34154e-06
2.55522e-06
3.04204e-06
3.42645e-06
3.89468e-06
4.859e-06
5.50194e-06
5.25234e-06
4.294e-06
1.72299e-06
1.29917e-06
1.04295e-06
7.69788e-07
6.9537e-07
4.55006e-07
8.98209e-07
8.10286e-07
6.89937e-07
7.84995e-07
7.47867e-07
8.23903e-07
9.17872e-07
1.03293e-06
1.16478e-06
1.18816e-06
1.49816e-06
2.5943e-06
4.88343e-06
7.91812e-06
1.0928e-05
1.31955e-05
1.50307e-05
1.67343e-05
2.06481e-05
2.48465e-05
3.00959e-05
3.56164e-05
4.08248e-05
4.32878e-05
4.79069e-05
3.65921e-05
2.17984e-05
1.32985e-05
5.76355e-06
1.58712e-06
1.23703e-07
8.2563e-09
1.02719e-08
2.13459e-08
2.78141e-08
2.89123e-08
2.98206e-08
2.98175e-08
3.00602e-08
2.99678e-08
2.92669e-08
2.9643e-08
2.96429e-08
2.92019e-08
2.8826e-08
2.91726e-08
2.82032e-08
2.89194e-08
2.84015e-08
2.84759e-08
2.85713e-08
2.84441e-08
2.89816e-08
2.82001e-08
2.91229e-08
2.87675e-08
2.90121e-08
2.95004e-08
2.96025e-08
2.93412e-08
3.00136e-08
3.00308e-08
3.00888e-08
2.99104e-08
2.86255e-08
2.78382e-08
2.87097e-08
5.11558e-08
1.219e-07
1.32898e-07
7.31386e-08
6.62679e-08
2.92675e-07
3.05722e-06
8.31006e-06
1.26328e-05
1.45721e-05
1.63344e-05
1.70398e-05
1.77381e-05
1.79755e-05
1.82965e-05
1.84465e-05
1.86236e-05
1.87741e-05
1.89008e-05
1.90623e-05
1.91689e-05
1.93369e-05
1.9441e-05
1.9598e-05
1.97078e-05
1.98435e-05
1.99596e-05
2.00736e-05
2.01767e-05
2.02734e-05
2.03616e-05
2.04422e-05
2.05268e-05
2.05987e-05
2.06716e-05
2.07411e-05
2.0822e-05
2.08793e-05
2.09736e-05
2.10527e-05
2.11883e-05
2.13308e-05
2.15577e-05
2.18006e-05
2.21427e-05
2.24894e-05
2.28935e-05
2.33167e-05
2.37203e-05
2.41139e-05
2.45786e-05
2.50925e-05
2.56242e-05
2.62848e-05
2.68487e-05
2.74575e-05
2.81723e-05
2.89437e-05
2.95639e-05
3.03199e-05
3.10644e-05
3.1706e-05
3.2323e-05
3.29046e-05
3.33197e-05
3.37027e-05
3.41081e-05
3.44085e-05
3.4606e-05
3.48506e-05
3.51062e-05
3.50619e-05
3.50348e-05
3.50854e-05
3.49239e-05
3.48232e-05
3.45626e-05
3.43517e-05
3.42159e-05
3.38685e-05
3.35258e-05
3.31135e-05
3.2798e-05
3.24757e-05
3.18795e-05
3.14379e-05
3.09313e-05
3.03741e-05
2.98295e-05
2.91211e-05
2.85426e-05
2.77823e-05
2.69017e-05
2.62424e-05
2.53185e-05
2.44723e-05
2.35547e-05
2.26584e-05
2.16436e-05
2.07957e-05
1.98166e-05
1.8917e-05
1.80906e-05
1.72127e-05
1.64106e-05
1.5643e-05
1.48324e-05
1.42145e-05
1.34072e-05
1.2748e-05
1.20531e-05
1.13211e-05
1.06061e-05
9.87678e-06
9.15438e-06
8.34867e-06
7.57602e-06
6.69709e-06
5.93987e-06
5.09717e-06
4.40159e-06
3.61824e-06
2.9924e-06
2.29452e-06
1.76434e-06
1.24013e-06
8.26547e-07
4.64513e-07
2.91193e-07
1.48184e-07
9.49613e-08
4.89753e-08
5.64317e-08
4.44917e-08
5.2031e-08
3.32998e-08
4.29074e-08
3.25904e-08
4.44871e-08
3.57841e-08
4.97685e-08
3.91281e-08
5.93911e-08
5.24073e-08
6.1031e-08
5.2764e-08
6.07586e-08
4.37261e-08
4.74274e-08
3.15452e-08
3.89894e-08
3.6981e-08
5.36175e-08
4.81038e-08
6.505e-08
5.60432e-08
6.56269e-08
6.53762e-08
5.66593e-08
4.2171e-08
3.26704e-08
3.56977e-08
4.3547e-08
5.47497e-08
5.96856e-08
1.74877e-08
9.05678e-08
3.26293e-08
2.70529e-08
2.48965e-08
5.51048e-08
3.51181e-08
8.17286e-08
6.63655e-08
9.94991e-08
6.19331e-08
6.97915e-08
5.1046e-08
5.98817e-08
3.02661e-08
4.00804e-08
3.05736e-08
4.35595e-08
3.24064e-08
4.55744e-08
3.19394e-08
3.8841e-08
3.07215e-08
2.78464e-08
2.78191e-08
2.62405e-08
1.86993e-08
2.79127e-08
3.54525e-08
3.61621e-08
8.10877e-08
1.08393e-07
1.75092e-07
4.35608e-07
8.7735e-07
1.06921e-06
1.65875e-06
2.3382e-06
3.19621e-06
4.05077e-06
4.8844e-06
6.11092e-06
7.24043e-06
8.64873e-06
9.88261e-06
1.10243e-05
1.24747e-05
1.3385e-05
1.49528e-05
1.57984e-05
1.7191e-05
1.81296e-05
1.92673e-05
2.01282e-05
2.12695e-05
2.18655e-05
2.31511e-05
2.37687e-05
2.47912e-05
2.5832e-05
2.65177e-05
2.74453e-05
2.84455e-05
2.91749e-05
2.98592e-05
3.02844e-05
3.2143e-05
3.2722e-05
3.09222e-05
3.50382e-05
3.5217e-05
3.42942e-05
3.93079e-05
4.5962e-05
5.11113e-05
5.31802e-05
5.30005e-05
5.25467e-05
5.232e-05
5.21877e-05
5.20293e-05
5.17477e-05
5.17964e-05
5.19938e-05
5.23063e-05
5.25261e-05
5.26784e-05
5.29539e-05
5.33443e-05
5.34081e-05
5.28832e-05
5.20802e-05
5.15606e-05
5.09637e-05
5.04163e-05
4.97932e-05
4.94808e-05
4.91153e-05
4.8773e-05
4.84224e-05
4.825e-05
4.81609e-05
4.8141e-05
4.8185e-05
4.80472e-05
4.79016e-05
4.72174e-05
4.56891e-05
4.29684e-05
3.89647e-05
3.41224e-05
2.89929e-05
2.38353e-05
1.96662e-05
1.61293e-05
1.30304e-05
1.08476e-05
9.65255e-06
8.8153e-06
7.31183e-06
5.23467e-06
3.33247e-06
2.65251e-06
2.79244e-06
3.22589e-06
3.71613e-06
4.91152e-06
6.28902e-06
6.7849e-06
7.22723e-06
4.38614e-06
2.39707e-06
1.4671e-06
1.16525e-06
1.23449e-06
9.20599e-07
1.18887e-06
1.17441e-06
1.06568e-06
1.08266e-06
1.00531e-06
9.82671e-07
9.84504e-07
1.04206e-06
1.10614e-06
1.12698e-06
1.41367e-06
2.25246e-06
4.15838e-06
7.0506e-06
1.03819e-05
1.32078e-05
1.57453e-05
1.76566e-05
1.96405e-05
2.29989e-05
2.79901e-05
3.36296e-05
4.04136e-05
4.54762e-05
5.33506e-05
5.0987e-05
3.30886e-05
1.7325e-05
7.42119e-06
2.10765e-06
2.70234e-07
7.35862e-08
4.96603e-08
3.47094e-08
3.16137e-08
3.02155e-08
2.99481e-08
2.9826e-08
3.00841e-08
2.99122e-08
2.95506e-08
2.96567e-08
2.95814e-08
2.90658e-08
2.86843e-08
2.90973e-08
2.81616e-08
2.89142e-08
2.83867e-08
2.84719e-08
2.84134e-08
2.83489e-08
2.88704e-08
2.81819e-08
2.90933e-08
2.87152e-08
2.89058e-08
2.9416e-08
2.95741e-08
2.93269e-08
3.00534e-08
3.00562e-08
2.99063e-08
2.9614e-08
2.89746e-08
2.58848e-08
1.94081e-08
1.62421e-08
2.61927e-08
3.15456e-08
7.62596e-09
3.14624e-08
1.70559e-07
1.13233e-06
5.09302e-06
9.81669e-06
1.24553e-05
1.41968e-05
1.54512e-05
1.62164e-05
1.67829e-05
1.71959e-05
1.75062e-05
1.77804e-05
1.79957e-05
1.82027e-05
1.83788e-05
1.85537e-05
1.87052e-05
1.88693e-05
1.89976e-05
1.91587e-05
1.92633e-05
1.94265e-05
1.94981e-05
1.96631e-05
1.97093e-05
1.98751e-05
1.99089e-05
2.00855e-05
2.01137e-05
2.02864e-05
2.03316e-05
2.05074e-05
2.05546e-05
2.07584e-05
2.08509e-05
2.11299e-05
2.13193e-05
2.1704e-05
2.19999e-05
2.24829e-05
2.28677e-05
2.33694e-05
2.37876e-05
2.42772e-05
2.47193e-05
2.53176e-05
2.59036e-05
2.65612e-05
2.72959e-05
2.79425e-05
2.86515e-05
2.95133e-05
3.03467e-05
3.10679e-05
3.19156e-05
3.27318e-05
3.34042e-05
3.40872e-05
3.46539e-05
3.50845e-05
3.54751e-05
3.58861e-05
3.61303e-05
3.63099e-05
3.65234e-05
3.67193e-05
3.65413e-05
3.64689e-05
3.64237e-05
3.61128e-05
3.58834e-05
3.5488e-05
3.51532e-05
3.4872e-05
3.43263e-05
3.38165e-05
3.32422e-05
3.27793e-05
3.22575e-05
3.14497e-05
3.08568e-05
3.00875e-05
2.92537e-05
2.8502e-05
2.76368e-05
2.68728e-05
2.58487e-05
2.47438e-05
2.38966e-05
2.27174e-05
2.16862e-05
2.05433e-05
1.94469e-05
1.82149e-05
1.72116e-05
1.6007e-05
1.49639e-05
1.39582e-05
1.29371e-05
1.19574e-05
1.10514e-05
1.00243e-05
9.28553e-06
8.21082e-06
7.40319e-06
6.44515e-06
5.56282e-06
4.6584e-06
3.87907e-06
3.13909e-06
2.44157e-06
1.86324e-06
1.25166e-06
8.92594e-07
4.42522e-07
3.41518e-07
1.14178e-07
1.27009e-07
4.12849e-08
6.3134e-08
3.16506e-08
4.41821e-08
2.36895e-08
4.54353e-08
2.20952e-08
5.09885e-08
2.36811e-08
4.50819e-08
2.10149e-08
3.82475e-08
2.37982e-08
4.10596e-08
2.67171e-08
3.99341e-08
2.48467e-08
3.45164e-08
2.31353e-08
3.08626e-08
2.09086e-08
2.70155e-08
1.91921e-08
2.96525e-08
2.72277e-08
4.47355e-08
3.8348e-08
4.61628e-08
3.54591e-08
3.75085e-08
3.33186e-08
3.1946e-08
3.30799e-08
2.95164e-08
3.20536e-08
3.14143e-08
5.26568e-08
5.22514e-08
5.87889e-08
5.46053e-08
4.44618e-08
4.68991e-08
9.32489e-08
7.06709e-08
9.47038e-08
1.05798e-07
9.1039e-08
6.28005e-08
2.55304e-08
1.98805e-08
8.44145e-09
1.2924e-08
7.62704e-09
1.32397e-08
9.22665e-09
1.64701e-08
1.10802e-08
1.67521e-08
1.10455e-08
1.37075e-08
1.10244e-08
1.32775e-08
1.42992e-08
1.45959e-08
1.90689e-08
1.56262e-08
2.46958e-08
1.73909e-08
3.17131e-08
1.14285e-08
3.70623e-08
6.47697e-09
3.96376e-08
6.01172e-09
3.9721e-08
2.37433e-09
6.18884e-08
4.87936e-09
4.31943e-08
4.28831e-08
6.08623e-08
1.53034e-07
1.70698e-07
4.29397e-07
7.25974e-07
1.4173e-06
2.05958e-06
2.61025e-06
3.90484e-06
4.29906e-06
6.02609e-06
6.95041e-06
8.69056e-06
9.92575e-06
1.15348e-05
1.27028e-05
1.43321e-05
1.51322e-05
1.67736e-05
1.76477e-05
1.89153e-05
2.01824e-05
2.11834e-05
2.22624e-05
2.35894e-05
2.44786e-05
2.54397e-05
2.61166e-05
2.79663e-05
2.9033e-05
2.74421e-05
3.1249e-05
3.16002e-05
3.21326e-05
3.84233e-05
4.59675e-05
5.09e-05
5.21524e-05
5.17541e-05
5.16577e-05
5.19985e-05
5.24301e-05
5.27938e-05
5.29051e-05
5.32899e-05
5.38408e-05
5.44949e-05
5.50782e-05
5.5615e-05
5.61858e-05
5.67605e-05
5.70681e-05
5.68563e-05
5.62021e-05
5.56881e-05
5.50491e-05
5.45364e-05
5.39663e-05
5.37141e-05
5.34438e-05
5.31903e-05
5.29027e-05
5.27979e-05
5.28105e-05
5.29066e-05
5.31482e-05
5.31744e-05
5.32013e-05
5.27713e-05
5.15277e-05
4.91582e-05
4.54233e-05
4.06056e-05
3.53131e-05
2.96231e-05
2.45077e-05
2.02557e-05
1.64528e-05
1.33234e-05
1.14286e-05
1.05625e-05
9.33088e-06
7.59693e-06
5.42412e-06
3.46257e-06
2.87803e-06
3.05691e-06
2.65048e-06
3.53458e-06
5.63246e-06
6.76319e-06
8.64738e-06
8.06586e-06
5.94701e-06
3.56381e-06
2.08109e-06
1.97657e-06
1.57033e-06
1.54969e-06
1.58871e-06
1.49597e-06
1.36247e-06
1.27403e-06
1.17158e-06
1.17452e-06
1.10288e-06
1.20912e-06
1.11547e-06
1.17868e-06
1.43201e-06
2.43715e-06
4.31608e-06
7.68643e-06
1.11003e-05
1.46039e-05
1.72189e-05
1.95835e-05
2.17537e-05
2.48915e-05
2.99655e-05
3.73613e-05
4.47467e-05
5.40959e-05
6.10303e-05
4.69718e-05
2.4502e-05
9.79209e-06
2.93706e-06
4.24862e-07
7.21694e-08
4.4307e-08
3.42744e-08
2.96806e-08
2.87584e-08
2.99106e-08
2.9836e-08
3.01093e-08
3.00469e-08
2.94208e-08
2.96101e-08
2.95609e-08
2.9139e-08
2.8809e-08
2.91805e-08
2.81638e-08
2.89741e-08
2.8386e-08
2.84794e-08
2.8523e-08
2.8444e-08
2.90072e-08
2.82281e-08
2.91902e-08
2.87736e-08
2.89361e-08
2.94136e-08
2.95832e-08
2.91823e-08
2.99889e-08
3.01235e-08
2.99335e-08
3.01634e-08
3.04456e-08
3.4459e-08
3.91269e-08
2.7337e-08
6.77233e-09
5.88426e-09
3.44856e-08
1.45822e-08
1.76525e-08
3.46527e-07
2.5612e-06
6.72337e-06
9.71948e-06
1.14943e-05
1.29918e-05
1.38636e-05
1.45826e-05
1.51506e-05
1.55245e-05
1.59269e-05
1.61547e-05
1.64726e-05
1.66245e-05
1.68911e-05
1.70029e-05
1.72417e-05
1.73269e-05
1.75509e-05
1.76146e-05
1.78316e-05
1.78722e-05
1.80951e-05
1.81207e-05
1.83522e-05
1.83814e-05
1.8626e-05
1.86614e-05
1.89054e-05
1.89756e-05
1.92232e-05
1.93193e-05
1.96133e-05
1.97799e-05
2.01695e-05
2.04455e-05
2.09369e-05
2.13001e-05
2.18587e-05
2.22684e-05
2.28018e-05
2.32307e-05
2.37926e-05
2.43097e-05
2.50161e-05
2.56592e-05
2.64082e-05
2.71921e-05
2.79011e-05
2.87112e-05
2.96825e-05
3.05379e-05
3.13391e-05
3.22339e-05
3.30795e-05
3.37522e-05
3.44602e-05
3.49618e-05
3.53981e-05
3.57706e-05
3.61539e-05
3.63119e-05
3.64661e-05
3.6618e-05
3.67165e-05
3.63863e-05
3.62717e-05
3.60959e-05
3.5615e-05
3.52469e-05
3.47186e-05
3.42461e-05
3.3798e-05
3.30429e-05
3.23698e-05
3.16413e-05
3.10241e-05
3.02861e-05
2.92773e-05
2.85327e-05
2.74877e-05
2.64004e-05
2.54683e-05
2.44744e-05
2.35392e-05
2.22758e-05
2.09952e-05
1.99911e-05
1.85906e-05
1.74202e-05
1.6082e-05
1.48236e-05
1.3404e-05
1.22617e-05
1.08128e-05
9.60103e-06
8.32642e-06
7.11046e-06
5.91124e-06
4.94328e-06
3.81256e-06
3.26027e-06
2.17032e-06
1.85846e-06
1.03808e-06
8.09091e-07
2.63238e-07
3.36231e-07
5.67613e-08
1.30524e-07
2.92833e-08
6.86078e-08
1.90743e-08
6.95272e-08
2.01748e-08
5.93107e-08
2.70393e-08
4.50527e-08
2.37073e-08
5.34864e-08
1.79636e-08
6.24504e-08
1.68684e-08
5.69373e-08
1.83567e-08
4.82089e-08
2.32919e-08
5.30813e-08
2.86644e-08
4.876e-08
2.66195e-08
4.50461e-08
2.78738e-08
4.75772e-08
3.49775e-08
5.3856e-08
3.85735e-08
5.60931e-08
4.67606e-08
6.35516e-08
4.57261e-08
4.82319e-08
3.0293e-08
3.75462e-08
3.1141e-08
4.48682e-08
3.72243e-08
4.94396e-08
4.20831e-08
5.444e-08
4.93523e-08
6.15368e-08
5.43705e-08
4.44869e-08
4.68079e-08
3.14124e-08
3.70612e-08
4.23516e-08
5.93923e-08
1.91849e-08
7.17225e-08
3.43689e-08
2.21332e-08
1.33326e-08
1.91055e-08
3.6647e-08
3.62513e-08
4.38789e-08
2.84426e-08
3.75025e-08
1.67997e-08
2.81933e-08
8.21071e-09
2.67439e-08
5.64026e-09
3.2079e-08
4.35703e-09
3.37599e-08
3.03328e-09
3.19084e-08
2.26617e-09
2.73228e-08
2.02105e-09
2.33464e-08
1.71356e-09
2.81385e-08
1.85031e-09
4.21971e-08
1.42694e-09
5.56428e-08
1.39738e-09
6.82359e-08
2.63039e-09
7.41231e-08
1.76539e-09
7.40003e-08
1.56077e-09
5.68951e-08
9.8604e-09
6.37505e-09
1.10889e-07
1.61092e-09
3.3424e-08
2.42654e-07
6.92372e-11
3.90551e-07
3.32653e-08
9.73751e-07
2.18964e-07
1.44824e-06
2.10652e-06
3.51012e-06
4.12014e-06
5.73772e-06
6.32724e-06
8.2231e-06
9.39157e-06
1.09275e-05
1.24678e-05