/*--------------------------------*- C++ -*----------------------------------*\
| =========                 |                                                 |
| \\      /  F ield         | OpenFOAM: The Open Source CFD Toolbox           |
|  \\    /   O peration     | Version:  v2006                                 |
|   \\  /    A nd           | Website:  www.openfoam.com                      |
|    \\/     M anipulation  |                                                 |
\*---------------------------------------------------------------------------*/
FoamFile
{
    version     2.0;
    format      ascii;
    class       volScalarField;
    location    "100";
    object      nuTilda;
}
// * * * * * * * * * * * * * * * * * * * * * * * * * * * * * * * * * * * * * //

dimensions      [0 2 -1 0 0 0 0];


internalField   nonuniform List<scalar> 
93840
(
3.98128e-07
3.98142e-07
3.98018e-07
3.98006e-07
3.98829e-07
4.00583e-07
4.0229e-07
4.01223e-07
4.02466e-07
4.02361e-07
4.02752e-07
4.03126e-07
4.03137e-07
4.0292e-07
4.00419e-07
3.8635e-07
3.43801e-07
2.8744e-07
2.83583e-07
3.13866e-07
5.80768e-07
1.70965e-06
5.73143e-06
1.26789e-05
1.65352e-05
1.61305e-05
1.41065e-05
1.47005e-05
1.44446e-05
1.42649e-05
1.33521e-05
1.27241e-05
1.29592e-05
1.24216e-05
1.23868e-05
1.22715e-05
1.20306e-05
1.2065e-05
1.17697e-05
1.18437e-05
1.15642e-05
1.16497e-05
1.13899e-05
1.14478e-05
1.12185e-05
1.12441e-05
1.10566e-05
1.10582e-05
1.09002e-05
1.0879e-05
1.07488e-05
1.07159e-05
1.05873e-05
1.05295e-05
1.04681e-05
1.04617e-05
1.03724e-05
1.03118e-05
1.02021e-05
1.01667e-05
1.01077e-05
1.00617e-05
9.99488e-06
1.00108e-05
9.97621e-06
9.9816e-06
9.96566e-06
9.99837e-06
9.98647e-06
1.0011e-05
1.00355e-05
1.00609e-05
1.01001e-05
1.01485e-05
1.0193e-05
1.02526e-05
1.03029e-05
1.03755e-05
1.04458e-05
1.05258e-05
1.05849e-05
1.06599e-05
1.07267e-05
1.08228e-05
1.09143e-05
1.10003e-05
1.10928e-05
1.11877e-05
1.12723e-05
1.13679e-05
1.14897e-05
1.16219e-05
1.17503e-05
1.18874e-05
1.20272e-05
1.219e-05
1.2346e-05
1.25097e-05
1.2675e-05
1.28643e-05
1.30599e-05
1.32451e-05
1.34431e-05
1.38163e-05
1.41819e-05
1.42823e-05
1.43634e-05
1.46517e-05
1.49586e-05
1.52605e-05
1.55667e-05
1.58717e-05
1.61735e-05
1.65395e-05
1.68727e-05
1.72068e-05
1.75167e-05
1.78785e-05
1.81743e-05
1.84891e-05
1.8736e-05
1.90236e-05
1.91671e-05
1.93614e-05
1.93503e-05
1.93547e-05
1.94437e-05
1.92333e-05
1.93171e-05
1.92143e-05
1.90634e-05
1.90335e-05
1.88636e-05
1.88508e-05
1.87274e-05
1.8678e-05
1.85275e-05
1.8495e-05
1.83884e-05
1.83689e-05
1.83118e-05
1.82566e-05
1.81619e-05
1.81107e-05
1.80671e-05
1.80168e-05
1.79752e-05
1.79319e-05
1.78505e-05
1.77701e-05
1.76931e-05
1.76117e-05
1.75216e-05
1.74241e-05
1.73053e-05
1.71858e-05
1.70471e-05
1.68939e-05
1.67085e-05
1.65393e-05
1.63848e-05
1.62227e-05
1.60032e-05
1.57555e-05
1.54624e-05
1.51501e-05
1.47893e-05
1.43452e-05
1.35406e-05
1.18125e-05
8.60499e-06
6.0362e-06
9.16469e-06
1.04296e-05
3.6094e-06
1.64169e-07
8.84533e-07
1.5532e-06
7.40674e-07
3.67442e-07
8.19847e-07
3.69374e-07
4.08742e-07
4.52029e-07
9.6328e-07
1.12099e-06
7.36718e-07
3.35172e-07
4.07138e-06
1.32618e-05
7.48052e-06
1.71873e-06
1.24447e-05
2.16992e-05
2.54273e-05
2.66734e-05
2.76926e-05
2.85919e-05
2.93064e-05
2.9654e-05
2.96953e-05
2.96975e-05
2.96095e-05
2.9612e-05
2.95411e-05
2.94493e-05
2.93404e-05
2.92523e-05
2.91476e-05
2.90212e-05
2.8894e-05
2.87593e-05
2.86312e-05
2.85103e-05
2.8398e-05
2.8265e-05
2.81099e-05
2.79737e-05
2.78222e-05
2.76853e-05
2.76685e-05
2.76133e-05
2.74742e-05
2.73203e-05
2.71308e-05
2.69414e-05
2.67525e-05
2.65818e-05
2.63949e-05
2.62047e-05
2.61083e-05
2.6182e-05
2.61026e-05
2.61637e-05
2.60772e-05
2.6016e-05
2.58751e-05
2.5789e-05
2.56517e-05
2.56144e-05
2.54886e-05
2.5501e-05
2.53776e-05
2.54531e-05
2.5345e-05
2.54021e-05
2.52714e-05
2.5447e-05
2.51393e-05
2.52249e-05
2.52483e-05
2.54294e-05
2.49932e-05
2.39645e-05
2.06134e-05
1.56917e-05
1.30568e-05
1.2925e-05
1.30803e-05
1.32601e-05
1.32806e-05
1.33227e-05
1.33249e-05
1.33007e-05
1.32407e-05
1.31431e-05
1.30481e-05
1.28862e-05
1.25531e-05
1.22468e-05
1.22012e-05
1.2112e-05
1.17825e-05
1.13722e-05
1.11683e-05
1.102e-05
1.07736e-05
1.04358e-05
1.01388e-05
9.85419e-06
9.56645e-06
9.27127e-06
8.97609e-06
8.67692e-06
8.37434e-06
8.06606e-06
7.77385e-06
7.46144e-06
7.13333e-06
6.73017e-06
6.27545e-06
5.71877e-06
5.13935e-06
4.54762e-06
3.99012e-06
3.19371e-06
2.07763e-06
1.05707e-06
3.87211e-07
2.76738e-07
2.97312e-07
2.74168e-07
2.65195e-07
2.74745e-07
2.87719e-07
3.12429e-07
3.39694e-07
3.76183e-07
3.96907e-07
3.95932e-07
3.65653e-07
3.48591e-07
3.02636e-07
2.93618e-07
2.75635e-07
2.60524e-07
2.49345e-07
2.24132e-07
2.2357e-07
2.21469e-07
2.13951e-07
2.06368e-07
1.95825e-07
1.89135e-07
2.01233e-07
1.97855e-07
1.99234e-07
1.9713e-07
2.26169e-07
3.10522e-07
4.02226e-07
6.85372e-07
1.18721e-06
1.88884e-06
2.90043e-06
3.0758e-06
8.67224e-06
1.33357e-05
1.66502e-05
1.79651e-05
1.8146e-05
1.74586e-05
1.40864e-05
1.56226e-05
1.41688e-05
7.45422e-06
2.31137e-06
6.6539e-07
3.36595e-07
2.60494e-07
3.27369e-07
3.76384e-07
3.92805e-07
3.97718e-07
4.00778e-07
4.02402e-07
4.02898e-07
4.02829e-07
4.03124e-07
4.02361e-07
4.01332e-07
4.02285e-07
4.00325e-07
3.98859e-07
3.98011e-07
3.97749e-07
3.97892e-07
3.97688e-07
3.97596e-07
3.97745e-07
3.9782e-07
3.97916e-07
3.98684e-07
3.99993e-07
4.02067e-07
4.01761e-07
4.0234e-07
4.03043e-07
4.02631e-07
4.02494e-07
4.02547e-07
4.01252e-07
4.02703e-07
4.12847e-07
4.47619e-07
5.02494e-07
5.49485e-07
5.43313e-07
5.43988e-07
1.16378e-06
4.03268e-06
1.02605e-05
1.53598e-05
1.7091e-05
1.67005e-05
1.57302e-05
1.48098e-05
1.42296e-05
1.35259e-05
1.31828e-05
1.29637e-05
1.28738e-05
1.30878e-05
1.27724e-05
1.31031e-05
1.27534e-05
1.31384e-05
1.27405e-05
1.31635e-05
1.27704e-05
1.32026e-05
1.27966e-05
1.32512e-05
1.28438e-05
1.32745e-05
1.28953e-05
1.32947e-05
1.29438e-05
1.32922e-05
1.29852e-05
1.32808e-05
1.29986e-05
1.3254e-05
1.30235e-05
1.32719e-05
1.3056e-05
1.32436e-05
1.30629e-05
1.3243e-05
1.31392e-05
1.33205e-05
1.32606e-05
1.34866e-05
1.35044e-05
1.3704e-05
1.3754e-05
1.39481e-05
1.40167e-05
1.42374e-05
1.43677e-05
1.45725e-05
1.47244e-05
1.49794e-05
1.5149e-05
1.53772e-05
1.55906e-05
1.58314e-05
1.60266e-05
1.62582e-05
1.64346e-05
1.66048e-05
1.67761e-05
1.69625e-05
1.71041e-05
1.72585e-05
1.74386e-05
1.75741e-05
1.76781e-05
1.78183e-05
1.79351e-05
1.80679e-05
1.8165e-05
1.82602e-05
1.83977e-05
1.85016e-05
1.86061e-05
1.86827e-05
1.8784e-05
1.89144e-05
1.89753e-05
1.90287e-05
1.91278e-05
1.92538e-05
1.93543e-05
1.93439e-05
1.93954e-05
1.94543e-05
1.94598e-05
1.95101e-05
1.95161e-05
1.95087e-05
1.94988e-05
1.94749e-05
1.94255e-05
1.93739e-05
1.93163e-05
1.92147e-05
1.91482e-05
1.90101e-05
1.89098e-05
1.87385e-05
1.86031e-05
1.84052e-05
1.8264e-05
1.80436e-05
1.78808e-05
1.76873e-05
1.74725e-05
1.72948e-05
1.70951e-05
1.69055e-05
1.67209e-05
1.65091e-05
1.63345e-05
1.61308e-05
1.59676e-05
1.57582e-05
1.55952e-05
1.53766e-05
1.52007e-05
1.49915e-05
1.48163e-05
1.46001e-05
1.44071e-05
1.41746e-05
1.39571e-05
1.37091e-05
1.34816e-05
1.3219e-05
1.2955e-05
1.2649e-05
1.23282e-05
1.19653e-05
1.15828e-05
1.11365e-05
1.06281e-05
1.00216e-05
9.37512e-06
8.71278e-06
8.06699e-06
7.26215e-06
6.04817e-06
4.58947e-06
3.69276e-06
3.72205e-06
3.87066e-06
3.1538e-06
1.63708e-06
3.74495e-07
4.01482e-07
9.89483e-07
8.35908e-07
5.06801e-07
1.96144e-07
4.45886e-07
3.38331e-07
3.71225e-07
5.37636e-07
2.14881e-07
4.95816e-07
4.59254e-07
3.16088e-07
2.46725e-07
5.41811e-07
5.93533e-07
5.19233e-07
2.99431e-07
7.83239e-07
5.09165e-08
6.97512e-07
9.96103e-07
3.66487e-06
5.44606e-06
4.42602e-06
3.98584e-06
6.21053e-06
9.55624e-06
1.16653e-05
1.27405e-05
1.38828e-05
1.52772e-05
1.64968e-05
1.74209e-05
1.82561e-05
1.90566e-05
1.97608e-05
2.03609e-05
2.08455e-05
2.12345e-05
2.15704e-05
2.18571e-05
2.21205e-05
2.23381e-05
2.25562e-05
2.27444e-05
2.29076e-05
2.30631e-05
2.32283e-05
2.33632e-05
2.3523e-05
2.36582e-05
2.38391e-05
2.39688e-05
2.41451e-05
2.42434e-05
2.43836e-05
2.45075e-05
2.46049e-05
2.47417e-05
2.48001e-05
2.49589e-05
2.50581e-05
2.51982e-05
2.53344e-05
2.54742e-05
2.55808e-05
2.57604e-05
2.58294e-05
2.59833e-05
2.61544e-05
2.61722e-05
2.63831e-05
2.64598e-05
2.66212e-05
2.66444e-05
2.66853e-05
2.72685e-05
2.70192e-05
2.64572e-05
2.81536e-05
2.75821e-05
2.64085e-05
2.67263e-05
2.82668e-05
3.08612e-05
3.1873e-05
3.09071e-05
2.9433e-05
2.82311e-05
2.72993e-05
2.65455e-05
2.59083e-05
2.546e-05
2.50854e-05
2.47883e-05
2.44332e-05
2.40933e-05
2.39053e-05
2.3743e-05
2.33952e-05
2.28955e-05
2.24978e-05
2.22176e-05
2.18715e-05
2.14836e-05
2.1115e-05
2.08375e-05
2.05232e-05
2.02199e-05
1.99228e-05
1.96653e-05
1.9412e-05
1.91607e-05
1.89131e-05
1.86336e-05
1.83345e-05
1.78426e-05
1.70918e-05
1.58795e-05
1.424e-05
1.22742e-05
1.04243e-05
8.84631e-06
7.34192e-06
6.0793e-06
5.22969e-06
4.2693e-06
3.55776e-06
2.80464e-06
2.00985e-06
1.54152e-06
1.45258e-06
1.49595e-06
1.54721e-06
1.70754e-06
1.90958e-06
2.07074e-06
1.83622e-06
1.44046e-06
1.1258e-06
8.94051e-07
8.86704e-07
9.57278e-07
9.00056e-07
8.75859e-07
7.20879e-07
8.44169e-07
8.61452e-07
8.48431e-07
8.31308e-07
7.58627e-07
7.48466e-07
9.00326e-07
9.32438e-07
9.57141e-07
1.05299e-06
1.17616e-06
1.36155e-06
2.14534e-06
3.7604e-06
5.89433e-06
8.20471e-06
1.19266e-05
1.68993e-05
1.93413e-05
2.27985e-05
2.62483e-05
2.89809e-05
2.91343e-05
2.93581e-05
2.14656e-05
1.5415e-05
1.49672e-05
9.61422e-06
3.49809e-06
9.41913e-07
5.62314e-07
5.45051e-07
4.45781e-07
3.94432e-07
3.97499e-07
4.00861e-07
4.0182e-07
4.02388e-07
4.03058e-07
4.02878e-07
4.02894e-07
4.0183e-07
4.01422e-07
4.02525e-07
4.00453e-07
3.98898e-07
3.98315e-07
3.98192e-07
3.98007e-07
3.9796e-07
3.9799e-07
3.98034e-07
3.98121e-07
3.98215e-07
3.98599e-07
4.00207e-07
4.0218e-07
4.01326e-07
4.02055e-07
4.03188e-07
4.03106e-07
4.0252e-07
4.0292e-07
4.0248e-07
4.01381e-07
4.04432e-07
4.06592e-07
3.89044e-07
3.30502e-07
3.25969e-07
3.85396e-07
6.73042e-07
2.42559e-06
7.38994e-06
1.30985e-05
1.6095e-05
1.7821e-05
1.82567e-05
1.78317e-05
1.76389e-05
1.71053e-05
1.69717e-05
1.66445e-05
1.67943e-05
1.66378e-05
1.68272e-05
1.67148e-05
1.68818e-05
1.68752e-05
1.69498e-05
1.70426e-05
1.70754e-05
1.72142e-05
1.71872e-05
1.74088e-05
1.73085e-05
1.75547e-05
1.743e-05
1.76769e-05
1.75232e-05
1.7764e-05
1.76036e-05
1.78103e-05
1.7652e-05
1.78443e-05
1.77167e-05
1.79142e-05
1.77784e-05
1.794e-05
1.78494e-05
1.80528e-05
1.80649e-05
1.83205e-05
1.84023e-05
1.87645e-05
1.89271e-05
1.9245e-05
1.94309e-05
1.97739e-05
1.99971e-05
2.04242e-05
2.07356e-05
2.11236e-05
2.14848e-05
2.19928e-05
2.23516e-05
2.28133e-05
2.32706e-05
2.37274e-05
2.41132e-05
2.45462e-05
2.48532e-05
2.51397e-05
2.54346e-05
2.57241e-05
2.59136e-05
2.61363e-05
2.6392e-05
2.65126e-05
2.65741e-05
2.67164e-05
2.67699e-05
2.6855e-05
2.68406e-05
2.68377e-05
2.69098e-05
2.68874e-05
2.68498e-05
2.67574e-05
2.6715e-05
2.6715e-05
2.65398e-05
2.63937e-05
2.6308e-05
2.62622e-05
2.61609e-05
2.58461e-05
2.56515e-05
2.54285e-05
2.50904e-05
2.48692e-05
2.45228e-05
2.41686e-05
2.37936e-05
2.34154e-05
2.29655e-05
2.25614e-05
2.21207e-05
2.16585e-05
2.12614e-05
2.07874e-05
2.03856e-05
1.99523e-05
1.95491e-05
1.91691e-05
1.87742e-05
1.83534e-05
1.80237e-05
1.75723e-05
1.72163e-05
1.68226e-05
1.64414e-05
1.60494e-05
1.56518e-05
1.52413e-05
1.48583e-05
1.44448e-05
1.40537e-05
1.3616e-05
1.32069e-05
1.27459e-05
1.23203e-05
1.18606e-05
1.14061e-05
1.09077e-05
1.04066e-05
9.83892e-06
9.25925e-06
8.62056e-06
7.98334e-06
7.28568e-06
6.59469e-06
5.86663e-06
5.14387e-06
4.3942e-06
3.73552e-06
3.20669e-06
2.77644e-06
2.18103e-06
1.53893e-06
1.21163e-06
1.2048e-06
9.61857e-07
5.65919e-07
4.54315e-07
5.09949e-07
4.02279e-07
3.19591e-07
3.32007e-07
4.10644e-07
5.34056e-07
5.09914e-07
4.03717e-07
4.31663e-07
4.48518e-07
4.48462e-07
4.16821e-07
4.09623e-07
3.78707e-07
3.67094e-07
5.12758e-07
4.18597e-07
3.05646e-07
5.22847e-07
5.36603e-07
3.86767e-07
3.46439e-07
4.07879e-07
4.79157e-07
4.16833e-07
4.28443e-07
7.42099e-07
5.46342e-07
3.8677e-07
9.61233e-07
8.1985e-07
1.03877e-07
5.31246e-07
1.70333e-06
1.80027e-06
1.47785e-06
2.10794e-06
3.13718e-06
3.78307e-06
4.19832e-06
4.9163e-06
5.9722e-06
7.13482e-06
8.25913e-06
9.42263e-06
1.06301e-05
1.18582e-05
1.30363e-05
1.41563e-05
1.51542e-05
1.60778e-05
1.68847e-05
1.75943e-05
1.82387e-05
1.88858e-05
1.94818e-05
2.00685e-05
2.05778e-05
2.11885e-05
2.16815e-05
2.22953e-05
2.27505e-05
2.32526e-05
2.37951e-05
2.41737e-05
2.48022e-05
2.51026e-05
2.56887e-05
2.605e-05
2.65129e-05
2.69178e-05
2.73823e-05
2.76945e-05
2.82892e-05
2.85481e-05
2.90474e-05
2.9564e-05
2.97686e-05
3.03069e-05
3.06681e-05
3.106e-05
3.12716e-05
3.14107e-05
3.26853e-05
3.25362e-05
3.12418e-05
3.45837e-05
3.40622e-05
3.18973e-05
3.42431e-05
3.8064e-05
4.25963e-05
4.48813e-05
4.45086e-05
4.328e-05
4.21815e-05
4.13013e-05
4.05384e-05
3.98518e-05
3.94638e-05
3.91835e-05
3.90197e-05
3.87459e-05
3.84129e-05
3.83357e-05
3.84243e-05
3.81399e-05
3.73794e-05
3.66698e-05
3.63047e-05
3.58637e-05
3.53357e-05
3.47681e-05
3.44321e-05
3.40325e-05
3.36617e-05
3.33009e-05
3.30508e-05
3.2824e-05
3.26182e-05
3.24041e-05
3.21149e-05
3.17738e-05
3.09643e-05
2.95119e-05
2.71038e-05
2.39256e-05
2.03288e-05
1.68294e-05
1.38754e-05
1.15134e-05
9.29171e-06
7.85432e-06
6.67356e-06
5.59359e-06
4.53747e-06
3.31443e-06
2.44926e-06
2.32652e-06
2.55158e-06
2.6929e-06
2.92068e-06
3.3245e-06
3.88847e-06
3.89912e-06
3.25271e-06
2.31566e-06
1.36682e-06
1.3372e-06
1.23776e-06
1.05525e-06
9.53538e-07
8.3078e-07
1.11352e-06
1.10859e-06
1.10392e-06
1.16677e-06
1.12341e-06
1.19433e-06
1.34647e-06
1.41077e-06
1.45354e-06
1.36428e-06
1.46587e-06
2.08793e-06
3.90531e-06
6.46231e-06
9.02222e-06
1.1e-05
1.32843e-05
1.69429e-05
2.13382e-05
2.54901e-05
3.02836e-05
3.49099e-05
3.7662e-05
3.83224e-05
3.68707e-05
2.30465e-05
1.64622e-05
1.14468e-05
4.72686e-06
1.4468e-06
5.48591e-07
4.43017e-07
4.48122e-07
4.26046e-07
4.04315e-07
3.99845e-07
4.00994e-07
4.02151e-07
4.031e-07
4.0324e-07
4.02433e-07
4.0208e-07
4.0138e-07
4.02871e-07
4.00264e-07
3.98886e-07
3.98216e-07
3.97975e-07
3.98118e-07
3.97947e-07
3.97674e-07
3.97752e-07
3.97618e-07
3.97771e-07
3.98513e-07
3.99989e-07
4.0204e-07
4.01112e-07
4.01909e-07
4.03055e-07
4.02626e-07
4.02426e-07
4.02239e-07
4.02358e-07
4.03101e-07
4.0925e-07
4.08025e-07
3.70325e-07
2.92957e-07
2.75291e-07
3.75466e-07
5.29771e-07
1.5805e-06
5.30089e-06
1.08126e-05
1.42058e-05
1.60645e-05
1.7375e-05
1.77923e-05
1.81763e-05
1.81448e-05
1.82713e-05
1.82561e-05
1.83203e-05
1.84138e-05
1.84391e-05
1.85996e-05
1.86129e-05
1.88013e-05
1.88239e-05
1.90109e-05
1.90473e-05
1.9222e-05
1.92591e-05
1.94403e-05
1.94469e-05
1.96255e-05
1.96116e-05
1.9775e-05
1.97437e-05
1.9899e-05
1.98543e-05
1.99862e-05
1.99529e-05
2.00682e-05
2.00468e-05
2.01693e-05
2.01586e-05
2.02972e-05
2.03537e-05
2.05667e-05
2.07382e-05
2.1042e-05
2.12915e-05
2.17047e-05
2.19985e-05
2.2361e-05
2.26829e-05
2.31178e-05
2.34979e-05
2.40573e-05
2.45091e-05
2.50156e-05
2.55583e-05
2.62233e-05
2.67226e-05
2.73482e-05
2.79728e-05
2.85463e-05
2.90626e-05
2.96009e-05
2.99785e-05
3.0328e-05
3.06947e-05
3.10132e-05
3.1216e-05
3.1464e-05
3.17396e-05
3.17986e-05
3.18179e-05
3.19308e-05
3.18927e-05
3.19e-05
3.17695e-05
3.16695e-05
3.16527e-05
3.14831e-05
3.13011e-05
3.10522e-05
3.08777e-05
3.07315e-05
3.03485e-05
3.00551e-05
2.97799e-05
2.94959e-05
2.91745e-05
2.86491e-05
2.82621e-05
2.77747e-05
2.71543e-05
2.67069e-05
2.60647e-05
2.54465e-05
2.47863e-05
2.41316e-05
2.33777e-05
2.2727e-05
2.2e-05
2.12903e-05
2.06615e-05
1.9962e-05
1.93488e-05
1.87323e-05
1.81227e-05
1.76114e-05
1.70106e-05
1.64586e-05
1.59518e-05
1.53458e-05
1.48241e-05
1.42567e-05
1.37239e-05
1.31429e-05
1.25868e-05
1.19795e-05
1.14308e-05
1.08182e-05
1.02415e-05
9.57439e-06
8.93184e-06
8.19673e-06
7.47961e-06
6.71344e-06
5.94377e-06
5.17239e-06
4.44631e-06
3.73326e-06
3.07725e-06
2.46835e-06
1.98927e-06
1.5868e-06
1.24891e-06
9.57898e-07
7.95521e-07
6.69508e-07
5.2461e-07
4.43899e-07
4.91319e-07
4.44132e-07
3.54037e-07
3.5834e-07
4.09001e-07
3.71295e-07
3.70078e-07
3.8598e-07
3.7019e-07
4.1814e-07
4.67829e-07
4.17271e-07
3.91301e-07
3.60558e-07
3.43787e-07
3.74417e-07
3.70638e-07
3.5674e-07
3.90495e-07
4.03657e-07
4.40507e-07
4.45679e-07
4.27952e-07
3.47514e-07
4.29956e-07
4.77455e-07
4.11037e-07
4.58434e-07
5.31954e-07
4.24487e-07
4.36395e-07
3.95004e-07
3.72757e-07
2.82523e-07
3.48594e-07
2.70218e-07
2.16728e-07
3.4257e-07
3.96391e-07
2.43764e-07
3.24476e-07
4.55201e-07
3.7743e-07
2.86121e-07
3.85543e-07
4.06483e-07
5.27144e-07
4.66239e-07
5.64216e-07
7.54825e-07
9.8941e-07
1.22947e-06
1.59018e-06
2.03789e-06
2.64501e-06
3.32921e-06
4.18516e-06
5.17628e-06
6.31153e-06
7.42011e-06
8.49314e-06
9.61956e-06
1.08038e-05
1.19899e-05
1.31301e-05
1.41143e-05
1.52069e-05
1.61066e-05
1.71351e-05
1.79473e-05
1.87443e-05
1.96833e-05
2.02878e-05
2.13497e-05
2.18999e-05
2.28786e-05
2.35275e-05
2.43136e-05
2.49518e-05
2.57323e-05
2.61917e-05
2.71353e-05
2.7563e-05
2.8331e-05
2.91258e-05
2.95433e-05
3.03032e-05
3.09696e-05
3.15388e-05
3.1963e-05
3.22268e-05
3.3886e-05
3.40302e-05
3.23461e-05
3.63563e-05
3.61914e-05
3.43425e-05
3.80681e-05
4.36067e-05
4.85657e-05
5.10036e-05
5.08344e-05
4.99689e-05
4.92306e-05
4.86386e-05
4.80913e-05
4.7537e-05
4.73219e-05
4.72356e-05
4.72718e-05
4.72002e-05
4.70536e-05
4.71137e-05
4.73481e-05
4.72101e-05
4.64909e-05
4.5667e-05
4.5204e-05
4.46775e-05
4.4121e-05
4.34933e-05
4.31501e-05
4.27384e-05
4.23579e-05
4.19841e-05
4.1763e-05
4.15927e-05
4.1468e-05
4.13545e-05
4.11123e-05
4.08369e-05
4.00076e-05
3.83784e-05
3.55978e-05
3.17459e-05
2.72978e-05
2.27548e-05
1.85882e-05
1.54028e-05
1.24955e-05
1.02556e-05
8.78685e-06
7.74134e-06
6.65747e-06
5.0763e-06
3.45235e-06
2.51426e-06
2.70481e-06
3.15287e-06
3.51562e-06
3.9651e-06
4.90551e-06
5.53881e-06
5.2929e-06
4.35407e-06
1.98019e-06
1.64208e-06
1.44671e-06
1.24179e-06
1.1855e-06
9.96182e-07
1.33839e-06
1.27253e-06
1.18128e-06
1.2532e-06
1.22507e-06
1.28285e-06
1.35347e-06
1.44131e-06
1.54178e-06
1.55945e-06
1.80198e-06
2.74358e-06
4.9317e-06
7.9369e-06
1.09379e-05
1.32024e-05
1.50359e-05
1.67385e-05
2.06509e-05
2.48484e-05
3.00972e-05
3.56173e-05
4.08254e-05
4.32884e-05
4.79074e-05
3.65928e-05
2.18003e-05
1.33036e-05
5.78855e-06
1.80304e-06
5.89176e-07
2.84778e-07
3.01402e-07
3.65542e-07
3.92669e-07
3.9886e-07
4.01184e-07
4.01988e-07
4.03115e-07
4.0258e-07
4.02128e-07
4.0209e-07
4.01733e-07
4.02732e-07
4.00652e-07
3.98944e-07
3.98173e-07
3.97936e-07
3.97987e-07
3.97825e-07
3.98164e-07
3.98109e-07
3.98096e-07
3.98162e-07
3.98749e-07
4.00169e-07
4.02238e-07
4.01142e-07
4.01919e-07
4.02184e-07
4.02843e-07
4.02928e-07
4.02917e-07
4.01533e-07
3.97601e-07
3.92871e-07
3.95028e-07
4.59556e-07
5.87665e-07
6.01866e-07
5.08088e-07
4.93775e-07
7.7859e-07
3.1379e-06
8.32265e-06
1.26383e-05
1.45762e-05
1.63378e-05
1.70429e-05
1.77409e-05
1.79783e-05
1.82992e-05
1.84492e-05
1.86261e-05
1.87766e-05
1.89032e-05
1.90648e-05
1.91713e-05
1.93393e-05
1.94433e-05
1.96003e-05
1.971e-05
1.98458e-05
1.99618e-05
2.00757e-05
2.01788e-05
2.02755e-05
2.03637e-05
2.04443e-05
2.05288e-05
2.06007e-05
2.06736e-05
2.07431e-05
2.08239e-05
2.08813e-05
2.09755e-05
2.10546e-05
2.11902e-05
2.13327e-05
2.15595e-05
2.18024e-05
2.21444e-05
2.2491e-05
2.28951e-05
2.33182e-05
2.37218e-05
2.41153e-05
2.458e-05
2.50938e-05
2.56255e-05
2.6286e-05
2.68499e-05
2.74586e-05
2.81734e-05
2.89447e-05
2.95649e-05
3.03208e-05
3.10653e-05
3.17069e-05
3.23238e-05
3.29054e-05
3.33205e-05
3.37034e-05
3.41088e-05
3.44092e-05
3.46068e-05
3.48513e-05
3.51069e-05
3.50626e-05
3.50355e-05
3.50862e-05
3.49247e-05
3.48239e-05
3.45634e-05
3.43524e-05
3.42166e-05
3.38693e-05
3.35266e-05
3.31143e-05
3.27988e-05
3.24766e-05
3.18805e-05
3.14388e-05
3.09323e-05
3.03751e-05
2.98306e-05
2.91222e-05
2.85438e-05
2.77836e-05
2.69031e-05
2.62438e-05
2.53201e-05
2.4474e-05
2.35565e-05
2.26603e-05
2.16458e-05
2.0798e-05
1.98192e-05
1.89199e-05
1.80937e-05
1.72161e-05
1.64145e-05
1.56472e-05
1.48371e-05
1.42196e-05
1.34129e-05
1.27542e-05
1.20599e-05
1.13288e-05
1.06147e-05
9.88659e-06
9.16563e-06
8.362e-06
7.59198e-06
6.7172e-06
5.96504e-06
5.13071e-06
4.44558e-06
3.68128e-06
3.08057e-06
2.43067e-06
1.96203e-06
1.52976e-06
1.21213e-06
9.33604e-07
7.84599e-07
6.29343e-07
5.51136e-07
4.57153e-07
4.74211e-07
4.43616e-07
4.62027e-07
4.08751e-07
4.36607e-07
4.04752e-07
4.39013e-07
4.13017e-07
4.50334e-07
4.20703e-07
4.70212e-07
4.5328e-07
4.71577e-07
4.51694e-07
4.68362e-07
4.26577e-07
4.34829e-07
3.8832e-07
4.09659e-07
4.02387e-07
4.43537e-07
4.28757e-07
4.63876e-07
4.43101e-07
4.60887e-07
4.58086e-07
4.37899e-07
4.01425e-07
3.72767e-07
3.79139e-07
3.9814e-07
4.22716e-07
4.31128e-07
3.11356e-07
4.88766e-07
3.73048e-07
3.60498e-07
3.63686e-07
4.61734e-07
4.2018e-07
5.38836e-07
5.22485e-07
5.99435e-07
5.3754e-07
5.65683e-07
5.31569e-07
5.61143e-07
4.73659e-07
5.12126e-07
4.82006e-07
5.31678e-07
4.93181e-07
5.40574e-07
4.93238e-07
5.20229e-07
4.89552e-07
4.77552e-07
4.78405e-07
4.71307e-07
4.31737e-07
4.79147e-07
5.12015e-07
5.13672e-07
6.39307e-07
6.93313e-07
7.98331e-07
1.07249e-06
1.42611e-06
1.57017e-06
2.02316e-06
2.5853e-06
3.35394e-06
4.15644e-06
4.96029e-06
6.1605e-06
7.27628e-06
8.67411e-06
9.90227e-06
1.10402e-05
1.24873e-05
1.3396e-05
1.49617e-05
1.58065e-05
1.7198e-05
1.81361e-05
1.92731e-05
2.01336e-05
2.12744e-05
2.18702e-05
2.31554e-05
2.37728e-05
2.47951e-05
2.58356e-05
2.65211e-05
2.74486e-05
2.84486e-05
2.91779e-05
2.98621e-05
3.02872e-05
3.21456e-05
3.27245e-05
3.09251e-05
3.50405e-05
3.52192e-05
3.42963e-05
3.93093e-05
4.59628e-05
5.1112e-05
5.31808e-05
5.30011e-05
5.25473e-05
5.23206e-05
5.21883e-05
5.20299e-05
5.17483e-05
5.1797e-05
5.19944e-05
5.23069e-05
5.25267e-05
5.2679e-05
5.29544e-05
5.33449e-05
5.34086e-05
5.28837e-05
5.20808e-05
5.15612e-05
5.09642e-05
5.04169e-05
4.97937e-05
4.94814e-05
4.91158e-05
4.87736e-05
4.8423e-05
4.82505e-05
4.81615e-05
4.81415e-05
4.81856e-05
4.80478e-05
4.79022e-05
4.7218e-05
4.56897e-05
4.29691e-05
3.89656e-05
3.41235e-05
2.89944e-05
2.38375e-05
1.96694e-05
1.6134e-05
1.30376e-05
1.0858e-05
9.66563e-06
8.83092e-06
7.33434e-06
5.27768e-06
3.43148e-06
2.79702e-06
2.92416e-06
3.32801e-06
3.79461e-06
4.95768e-06
6.31759e-06
6.80955e-06
7.2491e-06
4.44389e-06
2.56235e-06
1.77289e-06
1.5384e-06
1.5924e-06
1.35498e-06
1.55797e-06
1.54748e-06
1.46485e-06
1.4777e-06
1.41934e-06
1.40269e-06
1.4044e-06
1.44834e-06
1.49657e-06
1.51264e-06
1.73508e-06
2.43719e-06
4.2238e-06
7.07418e-06
1.03928e-05
1.32147e-05
1.575e-05
1.76604e-05
1.96436e-05
2.30012e-05
2.79916e-05
3.36307e-05
4.04143e-05
4.54767e-05
5.3351e-05
5.09874e-05
3.30894e-05
1.7328e-05
7.43659e-06
2.25551e-06
7.55288e-07
5.07788e-07
4.55817e-07
4.15355e-07
4.05903e-07
4.02927e-07
4.02767e-07
4.02288e-07
4.03314e-07
4.02287e-07
4.03012e-07
4.02354e-07
4.01527e-07
4.02616e-07
4.00341e-07
3.98896e-07
3.98101e-07
3.97919e-07
3.97911e-07
3.97812e-07
3.97607e-07
3.97809e-07
3.97786e-07
3.98123e-07
3.98686e-07
4.00186e-07
4.01972e-07
4.00814e-07
4.02133e-07
4.02103e-07
4.02915e-07
4.03059e-07
4.02454e-07
4.0135e-07
3.98725e-07
3.85019e-07
3.56768e-07
3.39368e-07
3.8393e-07
4.02824e-07
2.7953e-07
4.03364e-07
6.52205e-07
1.43694e-06
5.12523e-06
9.82565e-06
1.24609e-05
1.42011e-05
1.54549e-05
1.62198e-05
1.6786e-05
1.71989e-05
1.75091e-05
1.77832e-05
1.79984e-05
1.82054e-05
1.83814e-05
1.85563e-05
1.87077e-05
1.88717e-05
1.9e-05
1.91611e-05
1.92657e-05
1.94288e-05
1.95004e-05
1.96653e-05
1.97115e-05
1.98773e-05
1.99111e-05
2.00876e-05
2.01158e-05
2.02884e-05
2.03336e-05
2.05094e-05
2.05566e-05
2.07603e-05
2.08529e-05
2.11318e-05
2.13212e-05
2.17058e-05
2.20016e-05
2.24846e-05
2.28693e-05
2.33709e-05
2.37891e-05
2.42786e-05
2.47206e-05
2.53189e-05
2.59048e-05
2.65624e-05
2.7297e-05
2.79435e-05
2.86525e-05
2.95143e-05
3.03476e-05
3.10687e-05
3.19164e-05
3.27326e-05
3.3405e-05
3.40879e-05
3.46546e-05
3.50851e-05
3.54758e-05
3.58868e-05
3.6131e-05
3.63106e-05
3.6524e-05
3.67199e-05
3.6542e-05
3.64695e-05
3.64244e-05
3.61135e-05
3.58841e-05
3.54886e-05
3.5154e-05
3.48727e-05
3.43271e-05
3.38173e-05
3.3243e-05
3.27801e-05
3.22584e-05
3.14507e-05
3.08578e-05
3.00885e-05
2.92548e-05
2.85032e-05
2.7638e-05
2.68741e-05
2.58501e-05
2.47453e-05
2.38983e-05
2.27192e-05
2.16883e-05
2.05456e-05
1.94495e-05
1.82179e-05
1.72149e-05
1.60109e-05
1.49683e-05
1.39633e-05
1.29431e-05
1.19644e-05
1.10596e-05
1.00343e-05
9.29705e-06
8.2254e-06
7.42108e-06
6.4682e-06
5.59347e-06
4.70098e-06
3.93886e-06
3.22607e-06
2.57333e-06
2.05766e-06
1.55258e-06
1.27544e-06
9.28905e-07
8.41337e-07
5.913e-07
6.09024e-07
4.43382e-07
4.96985e-07
4.11163e-07
4.48934e-07
3.79415e-07
4.50719e-07
3.71178e-07
4.63239e-07
3.76487e-07
4.46015e-07
3.63493e-07
4.24924e-07
3.74009e-07
4.31283e-07
3.83823e-07
4.26194e-07
3.74843e-07
4.07865e-07
3.65966e-07
3.93848e-07
3.545e-07
3.78268e-07
3.44865e-07
3.855e-07
3.75735e-07
4.27755e-07
4.08788e-07
4.28501e-07
3.97494e-07
4.02153e-07
3.87897e-07
3.82052e-07
3.83652e-07
3.70717e-07
3.76647e-07
3.73161e-07
4.26419e-07
4.24012e-07
4.35458e-07
4.24847e-07
4.00132e-07
4.03869e-07
4.92173e-07
4.53796e-07
4.9967e-07
5.24047e-07
5.13731e-07
4.72936e-07
3.80468e-07
3.63751e-07
2.99508e-07
3.42091e-07
3.0567e-07
3.58651e-07
3.36171e-07
3.93821e-07
3.61262e-07
4.03665e-07
3.66767e-07
3.89773e-07
3.70072e-07
3.89979e-07
3.97133e-07
4.00857e-07
4.29739e-07
4.0909e-07
4.60888e-07
4.21221e-07
4.92669e-07
3.78627e-07
5.13584e-07
3.28053e-07
5.24709e-07
3.21995e-07
5.2501e-07
2.55083e-07
5.9119e-07
3.06277e-07
5.37316e-07
5.36313e-07
5.91853e-07
7.67153e-07
7.94301e-07
1.06943e-06
1.31177e-06
1.83465e-06
2.34908e-06
2.82165e-06
4.01497e-06
4.39158e-06
6.07554e-06
6.98835e-06
8.71556e-06
9.94525e-06
1.15496e-05
1.27151e-05
1.43419e-05
1.51411e-05
1.67809e-05
1.76544e-05
1.89212e-05
2.01877e-05
2.11883e-05
2.22669e-05
2.35934e-05
2.44824e-05
2.54433e-05
2.612e-05
2.79693e-05
2.90358e-05
2.74454e-05
3.12516e-05
3.16026e-05
3.21348e-05
3.84245e-05
4.59683e-05
5.09006e-05
5.2153e-05
5.17547e-05
5.16583e-05
5.19991e-05
5.24307e-05
5.27944e-05
5.29056e-05
5.32904e-05
5.38413e-05
5.44954e-05
5.50787e-05
5.56154e-05
5.61863e-05
5.67609e-05
5.70685e-05
5.68567e-05
5.62026e-05
5.56885e-05
5.50495e-05
5.45369e-05
5.39667e-05
5.37146e-05
5.34442e-05
5.31908e-05
5.29032e-05
5.27984e-05
5.2811e-05
5.29071e-05
5.31486e-05
5.31748e-05
5.32017e-05
5.27717e-05
5.15282e-05
4.91588e-05
4.54239e-05
4.06063e-05
3.53141e-05
2.96245e-05
2.45098e-05
2.02587e-05
1.64573e-05
1.33302e-05
1.1438e-05
1.05735e-05
9.34484e-06
7.61786e-06
5.4645e-06
3.55581e-06
3.00576e-06
3.17155e-06
2.79476e-06
3.62204e-06
5.66854e-06
6.78827e-06
8.66281e-06
8.08358e-06
5.97935e-06
3.64907e-06
2.2843e-06
2.19432e-06
1.85647e-06
1.83967e-06
1.87197e-06
1.79771e-06
1.69304e-06
1.62428e-06
1.54604e-06
1.54831e-06
1.49448e-06
1.57511e-06
1.50328e-06
1.55153e-06
1.7499e-06
2.60121e-06
4.37716e-06
7.70632e-06
1.111e-05
1.46094e-05
1.72229e-05
1.95865e-05
2.17562e-05
2.48934e-05
2.99669e-05
3.73621e-05
4.47473e-05
5.40963e-05
6.10306e-05
4.69722e-05
2.45036e-05
9.80114e-06
3.02339e-06
8.89686e-07
5.05288e-07
4.41966e-07
4.1429e-07
3.99554e-07
3.98567e-07
4.01438e-07
4.021e-07
4.03362e-07
4.02905e-07
4.02656e-07
4.02043e-07
4.01486e-07
4.02544e-07
4.0059e-07
3.99027e-07
3.98029e-07
3.98153e-07
3.97943e-07
3.9783e-07
3.97986e-07
3.98138e-07
3.98193e-07
3.98284e-07
3.98932e-07
4.00142e-07
4.01961e-07
4.00795e-07
4.01858e-07
4.01595e-07
4.02652e-07
4.03206e-07
4.02398e-07
4.02425e-07
4.04158e-07
4.156e-07
4.28932e-07
3.88397e-07
2.71092e-07
2.60897e-07
4.13779e-07
3.29692e-07
3.46732e-07
8.2785e-07
2.67328e-06
6.74218e-06
9.72847e-06
1.15009e-05
1.2997e-05
1.38681e-05
1.45867e-05
1.51544e-05
1.55282e-05
1.59304e-05
1.61581e-05
1.64758e-05
1.66276e-05
1.68941e-05
1.70059e-05
1.72446e-05
1.73298e-05
1.75537e-05
1.76173e-05
1.78343e-05
1.78749e-05
1.80977e-05
1.81233e-05
1.83547e-05
1.83839e-05
1.86284e-05
1.86638e-05
1.89078e-05
1.8978e-05
1.92255e-05
1.93215e-05
1.96154e-05
1.9782e-05
2.01715e-05
2.04475e-05
2.09388e-05
2.13019e-05
2.18605e-05
2.227e-05
2.28034e-05
2.32322e-05
2.3794e-05
2.43111e-05
2.50175e-05
2.56605e-05
2.64094e-05
2.71932e-05
2.79021e-05
2.87122e-05
2.96835e-05
3.05388e-05
3.13399e-05
3.22347e-05
3.30803e-05
3.37529e-05
3.44609e-05
3.49625e-05
3.53987e-05
3.57713e-05
3.61545e-05
3.63126e-05
3.64668e-05
3.66186e-05
3.67171e-05
3.63869e-05
3.62724e-05
3.60966e-05
3.56157e-05
3.52476e-05
3.47193e-05
3.42468e-05
3.37987e-05
3.30437e-05
3.23706e-05
3.16421e-05
3.1025e-05
3.0287e-05
2.92783e-05
2.85337e-05
2.74889e-05
2.64017e-05
2.54697e-05
2.44759e-05
2.35408e-05
2.22776e-05
2.09973e-05
1.99934e-05
1.85933e-05
1.74233e-05
1.60856e-05
1.48279e-05
1.34093e-05
1.2268e-05
1.0821e-05
9.6115e-06
8.34041e-06
7.12968e-06
5.93904e-06
4.98263e-06
3.87715e-06
3.3456e-06
2.33617e-06
2.06438e-06
1.4002e-06
1.2272e-06
7.81911e-07
8.4942e-07
4.93478e-07
6.23385e-07
4.11001e-07
5.15984e-07
3.65538e-07
5.15435e-07
3.69063e-07
4.91012e-07
3.96887e-07
4.53698e-07
3.81957e-07
4.73246e-07
3.5377e-07
4.91913e-07
3.4673e-07
4.77669e-07
3.5289e-07
4.54784e-07
3.7395e-07
4.65023e-07
3.93431e-07
4.52513e-07
3.84153e-07
4.40937e-07
3.87057e-07
4.45391e-07
4.09162e-07
4.5837e-07
4.17762e-07
4.61088e-07
4.37887e-07
4.74777e-07
4.32869e-07
4.37489e-07
3.85189e-07
4.06098e-07
3.85308e-07
4.23192e-07
4.01219e-07
4.31024e-07
4.11165e-07
4.38661e-07
4.25686e-07
4.49493e-07
4.32633e-07
4.06863e-07
4.10781e-07
3.67079e-07
3.82162e-07
3.95209e-07
4.3196e-07
3.19972e-07
4.57434e-07
3.78371e-07
3.40887e-07
3.06661e-07
3.43331e-07
4.19078e-07
4.25126e-07
4.60324e-07
4.18626e-07
4.62087e-07
3.80881e-07
4.47435e-07
3.28725e-07
4.52501e-07
3.05543e-07
4.82605e-07
2.91005e-07
4.94054e-07
2.68177e-07
4.88369e-07
2.4973e-07
4.71096e-07
2.43886e-07
4.54334e-07
2.33886e-07
4.77623e-07
2.39075e-07
5.31774e-07
2.24022e-07
5.734e-07
2.23511e-07
6.07555e-07
2.62049e-07
6.21594e-07
2.36887e-07
6.21673e-07
2.29971e-07
5.80482e-07
3.68283e-07
3.29909e-07
6.99832e-07
2.33203e-07
5.04923e-07
8.82345e-07
1.05789e-07
1.03224e-06
5.02856e-07
1.49614e-06
8.5463e-07
1.86101e-06
2.39164e-06
3.64582e-06
4.22319e-06
5.79358e-06
6.37386e-06
8.25126e-06
9.41349e-06
1.09439e-05
1.24806e-05
1.38626e-05