/*--------------------------------*- C++ -*----------------------------------*\
| =========                 |                                                 |
| \\      /  F ield         | OpenFOAM: The Open Source CFD Toolbox           |
|  \\    /   O peration     | Version:  v2006                                 |
|   \\  /    A nd           | Website:  www.openfoam.com                      |
|    \\/     M anipulation  |                                                 |
\*---------------------------------------------------------------------------*/
FoamFile
{
    version     2.0;
    format      ascii;
    class       volScalarField;
    location    "100";
    object      p;
}
// * * * * * * * * * * * * * * * * * * * * * * * * * * * * * * * * * * * * * //

dimensions      [1 -1 -2 0 0 0 0];


internalField   nonuniform List<scalar> 
93840
(
1.01388
1.01038
1.02321
1.00271
1.02127
1.00584
1.0032
1.00543
1.00131
1.00867
1.00861
1.01726
1.01555
1.02546
1.02575
1.03675
1.03972
1.04671
1.05132
1.05226
1.04561
1.0454
1.04653
1.04714
1.0259
1.02531
1.0441
1.02755
1.02096
1.03147
1.01733
1.04361
1.02165
1.02966
1.036
1.04122
1.04334
1.05013
1.05078
1.05769
1.05733
1.0612
1.06184
1.06661
1.06764
1.07122
1.07195
1.07508
1.07658
1.07909
1.0804
1.08321
1.084
1.08737
1.08789
1.08779
1.08965
1.09161
1.09321
1.094
1.09608
1.09629
1.09821
1.09822
1.09838
1.09908
1.09938
1.09892
1.09968
1.09948
1.09886
1.09846
1.09833
1.09762
1.09695
1.09601
1.09512
1.09404
1.09282
1.09148
1.09002
1.08866
1.08699
1.08488
1.083
1.08076
1.07844
1.07599
1.07362
1.07106
1.06791
1.06449
1.06099
1.0573
1.05351
1.04926
1.04493
1.04035
1.03569
1.03061
1.02544
1.0203
1.01514
1.00627
0.996959
0.993648
0.990893
0.983621
0.975616
0.967589
0.959694
0.951831
0.944362
0.935285
0.927225
0.919108
0.912079
0.903546
0.897023
0.89014
0.88563
0.879858
0.878857
0.875613
0.879346
0.883161
0.881934
0.89352
0.894597
0.902653
0.907886
0.914901
0.922049
0.928307
0.934679
0.940935
0.947634
0.954322
0.960113
0.964858
0.971153
0.974904
0.983257
0.986712
0.99381
0.996353
1.00391
1.00764
1.01448
1.02011
1.02587
1.03153
1.03702
1.04329
1.04956
1.05632
1.06289
1.07072
1.0788
1.08701
1.09394
1.1004
1.10863
1.11644
1.12583
1.13553
1.14744
1.15743
1.16805
1.17852
1.19235
1.20839
1.22389
1.23778
1.2551
1.27518
1.2966
1.32268
1.34997
1.37362
1.39645
1.41762
1.40304
1.36271
1.26859
1.15308
1.01714
0.925163
0.869899
0.849655
0.767892
0.711027
0.671939
0.645677
0.606232
0.601445
0.585209
0.586948
0.569621
0.569424
0.568986
0.567108
0.56711
0.567752
0.567232
0.564521
0.564241
0.564733
0.56479
0.564596
0.56376
0.56344
0.562067
0.562055
0.562328
0.563047
0.563002
0.5618
0.562443
0.562193
0.555324
0.555065
0.553953
0.555013
0.556838
0.55789
0.558686
0.559528
0.561062
0.56267
0.561335
0.558127
0.554303
0.551895
0.548745
0.549352
0.549214
0.548121
0.547697
0.546483
0.545519
0.544504
0.543745
0.542534
0.541573
0.540095
0.537295
0.533622
0.538502
0.535357
0.527565
0.536413
0.55517
0.628159
0.7423
0.795594
0.808437
0.811543
0.818892
0.823251
0.828147
0.832348
0.836838
0.842186
0.84815
0.854669
0.860864
0.868075
0.8774
0.886684
0.89165
0.896982
0.905089
0.914388
0.920642
0.925943
0.932151
0.939312
0.945676
0.951708
0.957385
0.962957
0.968332
0.973447
0.97843
0.983223
0.987496
0.991765
0.995544
0.999398
1.00276
1.00584
1.0087
1.01089
1.01325
1.01483
1.0163
1.01733
1.0181
1.01743
1.01702
1.01793
1.0179
1.01817
1.01825
1.01855
1.01833
1.01871
1.01914
1.01897
1.01945
1.01883
1.01967
1.01903
1.01999
1.0193
1.01939
1.01907
1.01965
1.02042
1.02032
1.01891
1.01917
1.0195
1.01945
1.0199
1.01981
1.01993
1.01978
1.01997
1.02058
1.01559
1.01841
1.01704
1.02223
1.0264
1.0127
1.012
1.02641
1.01599
1.0217
1.05285
1.03074
1.02585
1.04795
1.0456
1.04584
1.04468
1.05225
1.05183
1.04727
1.03984
1.03671
1.02649
1.02351
1.01554
1.01687
1.00886
1.00883
1.00183
1.00547
1.00327
1.00513
1.0214
1.00271
1.02312
1.01047
1.01392
1.01387
1.01024
1.02327
1.00272
1.02151
1.00514
1.00328
1.00546
1.00187
1.00886
1.00886
1.01686
1.01543
1.02357
1.02659
1.03674
1.03984
1.04715
1.0516
1.05204
1.04502
1.04615
1.04519
1.04618
1.0277
1.03363
1.03905
1.02898
1.02344
1.03014
1.01569
1.02858
1.02624
1.03369
1.03671
1.04062
1.04427
1.04824
1.05129
1.05544
1.05735
1.05948
1.06214
1.06537
1.06761
1.07025
1.07163
1.07417
1.0767
1.07839
1.08002
1.08227
1.0838
1.08627
1.08756
1.08746
1.08973
1.09134
1.09262
1.0936
1.09543
1.0962
1.09773
1.09767
1.09821
1.09871
1.09901
1.09874
1.09935
1.09927
1.0987
1.09824
1.09803
1.0974
1.09678
1.09582
1.09492
1.09386
1.09267
1.09134
1.08986
1.08851
1.08683
1.08475
1.08288
1.08065
1.07834
1.07588
1.0735
1.07093
1.06781
1.06441
1.06091
1.05724
1.05345
1.04922
1.04489
1.04032
1.03566
1.03059
1.02545
1.02027
1.01506
1.00636
0.997265
0.993808
0.990831
0.983632
0.975751
0.967767
0.959905
0.952059
0.944595
0.935587
0.927613
0.919526
0.9125
0.904072
0.897629
0.89079
0.886268
0.880634
0.879624
0.87652
0.880251
0.883882
0.882799
0.894117
0.895308
0.903452
0.908507
0.915429
0.922533
0.928814
0.93518
0.941497
0.948032
0.954683
0.960486
0.965333
0.971833
0.975612
0.983885
0.987177
0.994393
0.996868
1.00473
1.00848
1.01563
1.02104
1.0264
1.03231
1.03768
1.04457
1.05105
1.05778
1.06429
1.07202
1.08008
1.08802
1.09502
1.10215
1.11081
1.11948
1.12909
1.13885
1.15013
1.16062
1.17196
1.18368
1.19787
1.21249
1.22817
1.24464
1.26311
1.28232
1.30362
1.3251
1.34671
1.36846
1.38113
1.40354
1.38507
1.36045
1.30045
1.21254
1.10392
1.00779
0.9343
0.890952
0.811032
0.755436
0.713359
0.678926
0.631588
0.62137
0.600958
0.600345
0.58025
0.578268
0.575749
0.574656
0.572012
0.570239
0.571269
0.56963
0.567694
0.566685
0.567448
0.567209
0.565519
0.565186
0.564373
0.564102
0.563319
0.564113
0.564483
0.563728
0.563618
0.563293
0.556642
0.556525
0.554744
0.555695
0.557517
0.558514
0.559323
0.560126
0.56151
0.56325
0.561937
0.559005
0.555035
0.552585
0.549375
0.549697
0.549574
0.548824
0.54795
0.546587
0.545811
0.545061
0.544744
0.543059
0.541523
0.540033
0.537813
0.534078
0.53872
0.53586
0.52813
0.536863
0.556556
0.626526
0.743435
0.797138
0.808366
0.811416
0.818905
0.82331
0.828228
0.832443
0.836948
0.842307
0.84827
0.854792
0.861039
0.868282
0.87748
0.886648
0.891727
0.897205
0.90524
0.914386
0.920656
0.926066
0.932296
0.939401
0.945741
0.951784
0.957465
0.963039
0.96841
0.973523
0.9785
0.983285
0.987558
0.991828
0.995604
0.999451
1.00281
1.00588
1.00873
1.01093
1.01327
1.01482
1.01628
1.0173
1.01806
1.01754
1.01724
1.01796
1.01795
1.01839
1.01832
1.01848
1.01849
1.01853
1.01916
1.01878
1.01923
1.01912
1.01971
1.01905
1.01995
1.01928
1.02004
1.01936
1.02003
1.01909
1.01952
1.01989
1.01979
1.01895
1.01888
1.0188
1.01928
1.01817
1.01897
1.01958
1.02028
1.0189
1.02073
1.01343
1.01898
1.01855
1.02271
1.01234
1.0267
1.01101
1.02732
1.04643
1.02363
1.02152
1.04898
1.04656
1.04497
1.04532
1.05266
1.05148
1.04689
1.03977
1.03673
1.02558
1.02541
1.01551
1.01725
1.0086
1.00864
1.00131
1.00542
1.00324
1.00579
1.02122
1.00268
1.02343
1.01014
1.01386
1.01394
1.0103
1.02329
1.00271
1.02135
1.0059
1.0033
1.00549
1.00137
1.00874
1.00859
1.01719
1.0157
1.02552
1.02587
1.03677
1.03973
1.04675
1.05106
1.05189
1.04599
1.04566
1.04673
1.04717
1.02795
1.03206
1.04036
1.03135
1.02447
1.03599
1.02883
1.03615
1.02557
1.04032
1.03544
1.04395
1.04332
1.04967
1.05163
1.05579
1.05764
1.06016
1.06209
1.06541
1.06728
1.07041
1.07106
1.07428
1.0764
1.07814
1.08014
1.08235
1.0835
1.08587
1.08736
1.08739
1.08977
1.09074
1.09269
1.09367
1.09507
1.09628
1.09729
1.09763
1.09789
1.09857
1.09891
1.09862
1.09918
1.09906
1.09852
1.09808
1.09795
1.09725
1.09667
1.09567
1.09484
1.09375
1.09255
1.09125
1.08978
1.08838
1.08674
1.08466
1.0828
1.08057
1.07827
1.07581
1.07343
1.07085
1.06774
1.06435
1.06085
1.05719
1.0534
1.04918
1.04486
1.04029
1.03564
1.03058
1.02544
1.02025
1.01502
1.00638
0.997395
0.9939
0.99084
0.983653
0.975827
0.967869
0.960029
0.952201
0.944733
0.935773
0.927838
0.919787
0.912787
0.904395
0.898018
0.891183
0.886695
0.881013
0.880113
0.877029
0.880772
0.884318
0.883325
0.89455
0.895727
0.90385
0.908831
0.915947
0.92286
0.929279
0.935774
0.941851
0.948499
0.955073
0.960847
0.965726
0.972063
0.975844
0.983846
0.987497
0.994479
0.997222
1.00504
1.00917
1.01572
1.02138
1.02722
1.03263
1.03838
1.04483
1.05197
1.05869
1.06516
1.07212
1.08028
1.089
1.09636
1.10306
1.11207
1.12
1.13013
1.13945
1.15097
1.16183
1.17275
1.18441
1.19816
1.2137
1.22928
1.24467
1.2621
1.28205
1.30351
1.32853
1.35265
1.37569
1.39021
1.40791
1.39329
1.36779
1.29657
1.21328
1.10031
1.01141
0.935656
0.899208
0.822953
0.766843
0.718619
0.685778
0.640914
0.629933
0.608674
0.604883
0.586522
0.583
0.579525
0.575757
0.576166
0.575058
0.573098
0.569328
0.56976
0.569783
0.56948
0.56828
0.567397
0.566583
0.565013
0.564896
0.565049
0.565128
0.564787
0.563952
0.564973
0.564271
0.557355
0.556313
0.55507
0.556217
0.557882
0.558857
0.559587
0.560293
0.561946
0.563396
0.562603
0.559272
0.555581
0.552872
0.549525
0.550162
0.549997
0.54859
0.548334
0.547225
0.546379
0.545107
0.544002
0.543152
0.542682
0.541075
0.538154
0.534245
0.538857
0.536121
0.528113
0.536789
0.555888
0.626336
0.741552
0.798762
0.808992
0.811462
0.818955
0.823406
0.828323
0.832522
0.837018
0.842379
0.848342
0.854869
0.861133
0.868375
0.877535
0.886667
0.891781
0.897287
0.90528
0.914392
0.920677
0.926121
0.932352
0.939437
0.945773
0.95181
0.95749
0.963058
0.968427
0.973542
0.978513
0.983296
0.987568
0.991837
0.995606
0.999449
1.00279
1.00585
1.00869
1.01089
1.01321
1.01482
1.01626
1.01726
1.01794
1.01735
1.01698
1.01766
1.01781
1.01835
1.01824
1.01849
1.0185
1.01855
1.0191
1.01879
1.0192
1.01919
1.01955
1.01927
1.01989
1.01948
1.01999
1.01937
1.01949
1.01977
1.01973
1.01976
1.01956
1.01901
1.01918
1.0177
1.01863
1.01872
1.01903
1.01882
1.02013
1.01967
1.02013
1.01463
1.01954
1.02177
1.02246
1.01088
1.0251
1.01366
1.0264
1.05392
1.02749
1.01985
1.05158
1.04593
1.04577
1.04408
1.05257
1.05184
1.04744
1.03969
1.03673
1.02624
1.02336
1.01538
1.01692
1.00877
1.009
1.00178
1.00541
1.00325
1.0051
1.02133
1.00279
1.02351
1.01029
1.01392
1.01387
1.01037
1.02293
1.00265
1.0214
1.00516
1.00304
1.00545
1.0018
1.00886
1.00884
1.01687
1.01544
1.02362
1.02676
1.03654
1.03966
1.04694
1.05137
1.05184
1.04528
1.04643
1.04526
1.04708
1.02879
1.03496
1.04067
1.03473
1.02771
1.03181
1.0279
1.03299
1.03154
1.03793
1.03816
1.04322
1.04421
1.04969
1.05051
1.05603
1.05623
1.05976
1.06156
1.06539
1.0665
1.07004
1.0706
1.07383
1.07597
1.07827
1.07937
1.08187
1.08254
1.08538
1.08719
1.08737
1.08931
1.09075
1.09205
1.09327
1.09454
1.09603
1.09693
1.09709
1.09769
1.09828
1.09854
1.09838
1.09891
1.09896
1.09836
1.0979
1.09766
1.09702
1.09647
1.0955
1.09463
1.09357
1.0924
1.09111
1.08962
1.08826
1.08659
1.08453
1.08269
1.08046
1.07817
1.07571
1.07332
1.07074
1.06765
1.06428
1.06079
1.05713
1.05335
1.04915
1.04483
1.04026
1.03561
1.03057
1.02545
1.02025
1.01499
1.00648
0.997647
0.994052
0.990801
0.983689
0.975972
0.968053
0.960246
0.952438
0.944983
0.936068
0.928229
0.920206
0.913202
0.904926
0.898579
0.891825
0.88724
0.881779
0.880739
0.877828
0.881621
0.884915
0.884081
0.895109
0.896352
0.904607
0.909324
0.916263
0.923283
0.92965
0.935962
0.942326
0.948803
0.955376
0.961149
0.966
0.972582
0.976514
0.984775
0.988158
0.995377
0.997845
1.00587
1.00935
1.01654
1.02195
1.02794
1.03443
1.03898
1.0458
1.0526
1.0594
1.066
1.07353
1.08175
1.09046
1.09797
1.1047
1.11275
1.12148
1.13111
1.14183
1.15306
1.16409
1.17556
1.18758
1.20202
1.21661
1.23247
1.24881
1.26734
1.28634
1.30686
1.32791
1.35165
1.3691
1.38567
1.399
1.38878
1.37085
1.31019
1.23785
1.14357
1.05691
0.978827
0.927372
0.851679
0.796678
0.747613
0.710043
0.659524
0.644341
0.618958
0.614851
0.594645
0.590165
0.584369
0.580415
0.579181
0.577462
0.577381
0.572744
0.571866
0.571053
0.570313
0.569861
0.569489
0.568854
0.567665
0.566542
0.56591
0.566324
0.56653
0.566033
0.56583
0.565126
0.558551
0.558412
0.555897
0.55668
0.558357
0.559241
0.560204
0.560853
0.562355
0.564101
0.562943
0.56026
0.556244
0.553535
0.550332
0.550603
0.550279
0.549464
0.548439
0.5473
0.546664
0.545777
0.545469
0.543731
0.541971
0.540558
0.538936
0.53456
0.538952
0.536619
0.52899
0.537047
0.555154
0.626365
0.74358
0.799276
0.808857
0.811457
0.819074
0.823522
0.828426
0.832629
0.837133
0.8425
0.848472
0.855006
0.861301
0.868569
0.877618
0.886664
0.891867
0.897485
0.905443
0.914427
0.920715
0.926234
0.932482
0.939524
0.945841
0.951889
0.957579
0.96315
0.968515
0.97363
0.978599
0.983372
0.987642
0.991903
0.995664
0.999482
1.00282
1.00586
1.00871
1.0109
1.01321
1.01478
1.01625
1.01716
1.01796
1.01749
1.01729
1.01804
1.01785
1.01832
1.01823
1.01851
1.01854
1.01866
1.01907
1.01882
1.01958
1.01868
1.01973
1.01923
1.01974
1.01933
1.01983
1.01945
1.01937
1.01942
1.01971
1.01994
1.02002
1.01904
1.01963
1.01877
1.0187
1.01849
1.01932
1.01782
1.01907
1.01966
1.02092
1.01605
1.01973
1.01805
1.02095
1.01221
1.02566
1.00888
1.03102
1.0466
1.01811
1.02079
1.0501
1.04637
1.04472
1.04506
1.05318
1.05165
1.04696
1.0398
1.03654
1.0255
1.0254
1.01545
1.01732
1.00855
1.00862
1.00123
1.00542
1.00319
1.00573
1.02127
1.00268
1.02337
1.01023
1.01383
1.01396
1.0104
1.02326
1.00272
1.02149
1.00596
1.00348
1.00554
1.00138
1.00878
1.00856
1.01718
1.01572
1.02561
1.026
1.03676
1.03964
1.04671
1.05086
1.05168
1.04616
1.04589
1.04623
1.04491
1.03125
1.03211
1.03583
1.03728
1.0284
1.03572
1.03256
1.03795
1.03318
1.04147
1.03802
1.04572
1.04442
1.05075
1.0515
1.05638
1.05696
1.06021
1.06184
1.06489
1.0668
1.06973
1.07072
1.07372
1.0759
1.07777
1.07952
1.08178
1.08225
1.0852
1.08686
1.08725
1.08902
1.09068
1.09162
1.0933
1.0943
1.09586
1.09656
1.0969
1.0974
1.09801
1.0984
1.09828
1.09859
1.09865
1.09823
1.09768
1.09743
1.09683
1.09634
1.0953
1.09449
1.09341
1.09225
1.09097
1.0895
1.08808
1.08646
1.08441
1.08258
1.08036
1.07807
1.07561
1.07322
1.07062
1.06754
1.06419
1.0607
1.05705
1.05328
1.04909
1.04479
1.04023
1.03559
1.03055
1.02543
1.02022
1.01492
1.00649
0.997823
0.994173
0.990827
0.983717
0.976072
0.968189
0.960412
0.952629
0.945163
0.936328
0.928532
0.920565
0.913602
0.905354
0.899118
0.892325
0.887846
0.882258
0.881451
0.878544
0.882344
0.885537
0.884786
0.895629
0.896891
0.90515
0.909792
0.916972
0.923739
0.930273
0.9368
0.942779
0.949383
0.95588
0.961571
0.966512
0.972847
0.976749
0.984636
0.98847
0.995647
0.998277
1.00601
1.01018
1.01687
1.02277
1.02837
1.03396
1.04052
1.04654
1.05291
1.05939
1.06681
1.07442
1.08315
1.09036
1.09782
1.10558
1.11443
1.12259
1.13293
1.14198
1.1534
1.16424
1.17602
1.18821
1.20137
1.21721
1.23253
1.24854
1.26534
1.28559
1.30552
1.32759
1.34711
1.36925
1.38152
1.39346
1.38095
1.36082
1.30076
1.23527
1.13558
1.05562
0.977375
0.931082
0.860044
0.803661
0.752579
0.715502
0.668683
0.650932
0.625803
0.62105
0.600576
0.593545
0.589705
0.585778
0.58272
0.579934
0.579744
0.575804
0.574161
0.573778
0.573597
0.572231
0.569659
0.569617
0.569182
0.568064
0.566769
0.567688
0.567374
0.566751
0.566666
0.565881
0.559721
0.558441
0.556682
0.55748
0.558943
0.559748
0.56056
0.561283
0.562785
0.564367
0.564021
0.560797
0.556893
0.554196
0.550618
0.550783
0.550699
0.549785
0.548979
0.547529
0.546935
0.546128
0.545328
0.544094
0.543386
0.54126
0.538956
0.535337
0.539174
0.536795
0.52938
0.536917
0.554344
0.625231
0.743808
0.800567
0.81014
0.811835
0.819278
0.82373
0.828598
0.832767
0.837244
0.842609
0.848577
0.855118
0.86144
0.868696
0.877708
0.886706
0.891945
0.897588
0.905464
0.914419
0.920736
0.926299
0.932548
0.939567
0.945879
0.951914
0.957591
0.963154
0.968512
0.973626
0.978582
0.983356
0.987624
0.991888
0.995644
0.999465
1.00277
1.00581
1.00861
1.01082
1.01311
1.01472
1.01617
1.0171
1.0178
1.01731
1.01705
1.01769
1.01786
1.01826
1.01816
1.01851
1.01839
1.01872
1.01903
1.01893
1.0194
1.01898
1.01954
1.01913
1.01969
1.01933
1.0198
1.02007
1.01979
1.01921
1.01922
1.01991
1.01983
1.01968
1.01938
1.01942
1.02007
1.01925
1.0184
1.01777
1.01898
1.02025
1.02059
1.01697
1.01913
1.01799
1.02013
1.01917
1.02513
1.01697
1.03089
1.04809
1.02244
1.0208
1.0526
1.04611
1.04532
1.0442
1.05291
1.05208
1.04747
1.03982
1.03678
1.02612
1.02327
1.01559
1.01701
1.00871
1.00902
1.00183
1.00542
1.00328
1.00509
1.02146
1.00279
1.02352
1.01043
1.01385
1.01381
1.01018
1.02274
1.00263
1.02127
1.00521
1.00309
1.00554
1.0018
1.00871
1.0089
1.01688
1.01548
1.02366
1.0268
1.03635
1.0395
1.04717
1.05105
1.05162
1.04533
1.04646
1.04493
1.04585
1.0339
1.03544
1.03993
1.03533
1.03319
1.0337
1.03326
1.03615
1.03559
1.0397
1.04037
1.04475
1.04571
1.0505
1.05148
1.05561
1.05689
1.05921
1.06186
1.06497
1.06626
1.06922
1.07079
1.07265
1.07558
1.07743
1.07921
1.08113
1.08178
1.0845
1.08665
1.08713
1.08829
1.09052
1.09134
1.09259
1.09417
1.09516
1.09617
1.09649
1.097
1.09759
1.09811
1.0979
1.09839
1.09846
1.09788
1.09744
1.09721
1.09653
1.09606
1.09507
1.09425
1.09317
1.09206
1.09079
1.0893
1.08791
1.08627
1.08423
1.08241
1.08021
1.07792
1.07546
1.07307
1.07048
1.06743
1.0641
1.06062
1.05698
1.05321
1.04903
1.04473
1.04018
1.03553
1.03052
1.02543
1.02022
1.01491
1.00658
0.998063
0.99435
0.990784
0.98376
0.976236
0.968401
0.960665
0.95291
0.945466
0.936665
0.928999
0.921068
0.914091
0.905978
0.899744
0.893086
0.88844
0.883191
0.88218
0.879409
0.883148
0.886282
0.885637
0.896338
0.897656
0.905963
0.91034
0.917332
0.92422
0.930704
0.936982
0.943333
0.949775
0.956245
0.961996
0.966936
0.973567
0.977471
0.985537
0.989089
0.996353
0.999021
1.00683
1.01041
1.01815
1.02336
1.02901
1.03533
1.04062
1.04787
1.05417
1.06086
1.06776
1.0759
1.08375
1.0915
1.09911
1.10714
1.11537
1.12485
1.13446
1.1446
1.15609
1.16687
1.17859
1.19083
1.20491
1.21964
1.23517
1.25129
1.26987
1.28793
1.30811
1.32771
1.34624
1.36211
1.37563
1.38777
1.37512
1.36311
1.31087
1.25012
1.16787
1.09053
1.01493
0.958147
0.887539
0.830891
0.781302
0.740299
0.686416
0.666777
0.639438
0.630536
0.609896
0.603166
0.592764
0.589733
0.5877
0.583582
0.579818
0.578522
0.5778
0.575516
0.5744
0.574516
0.573119
0.571267
0.569941
0.569674
0.569452
0.568993
0.568856
0.567556
0.568196
0.567813
0.560899
0.560061
0.557643
0.558314
0.559508
0.560254
0.561227
0.561956
0.56335
0.565076
0.564324
0.561895
0.557609
0.554952
0.551495
0.551806
0.551075
0.550128
0.549401
0.548486
0.54783
0.546497
0.545904
0.544382
0.54301
0.541763
0.540281
0.535234
0.539173
0.537639
0.529714
0.536763
0.553637
0.624263
0.744623
0.802877
0.811221
0.812104
0.819443
0.823889
0.828754
0.832929
0.837408
0.842771
0.848751
0.855303
0.861637
0.868905
0.877779
0.886713
0.892055
0.897787
0.905644
0.914472
0.920791
0.926408
0.932657
0.939632
0.945927
0.951972
0.957667
0.963233
0.96859
0.973704
0.978663
0.983417
0.987687
0.99193
0.995673
0.999449
1.00276
1.00578
1.00861
1.0108
1.01306
1.01466
1.01612
1.01697
1.01777
1.01748
1.01732
1.01794
1.01793
1.01828
1.01831
1.0184
1.01859
1.01849
1.01912
1.01886
1.0193
1.01909
1.01963
1.01928
1.01982
1.01926
1.01956
1.0194
1.02029
1.01992
1.02011
1.01841
1.01885
1.01901
1.01997
1.01945
1.01939
1.02026
1.02035
1.01629
1.01853
1.01862
1.0188
1.01604
1.01996
1.01645
1.0213
1.01782
1.02355
1.01798
1.03204
1.04132
1.01391
1.02241
1.05074
1.04679
1.04452
1.04503
1.0536
1.05182
1.04717
1.03972
1.03628
1.02526
1.02535
1.01523
1.01735
1.00851
1.00857
1.00121
1.0054
1.00318
1.00569
1.02125
1.0026
1.02349
1.01009
1.01382
1.01393
1.01029
1.02319
1.00273
1.0216
1.006
1.0035
1.00556
1.00141
1.00881
1.00862
1.01716
1.01568
1.02565
1.02603
1.03685
1.03961
1.04694
1.05057
1.0515
1.04633
1.0466
1.0461
1.04528
1.03254
1.03453
1.03857
1.03818
1.03144
1.03959
1.03434
1.04049
1.03675
1.04302
1.04113
1.04686
1.0469
1.05113
1.05247
1.05637
1.05698
1.0606
1.06131
1.06492
1.06602
1.06951
1.07035
1.07286
1.07547
1.07736
1.07873
1.08092
1.08161
1.0843
1.0862
1.08684
1.08821
1.09021
1.09115
1.09235
1.09387
1.09466
1.09593
1.09619
1.09676
1.09728
1.09781
1.09774
1.09799
1.09817
1.09775
1.09718
1.09688
1.09635
1.09584
1.09481
1.09407
1.09297
1.09186
1.0906
1.08914
1.0877
1.0861
1.08408
1.08227
1.08007
1.07779
1.07534
1.07294
1.07033
1.06728
1.06396
1.06049
1.05686
1.0531
1.04896
1.04468
1.04013
1.0355
1.03049
1.0254
1.02018
1.01481
1.00659
0.998285
0.994498
0.990833
0.983803
0.976365
0.968572
0.960873
0.95315
0.945687
0.936995
0.929372
0.921519
0.914603
0.90649
0.90041
0.893672
0.889199
0.88375
0.883024
0.880277
0.884085
0.887013
0.886461
0.896902
0.898324
0.906642
0.910927
0.918059
0.924775
0.931373
0.937875
0.94376
0.950214
0.956691
0.962361
0.967474
0.973759
0.977682
0.98557
0.989191
0.99645
0.999134
1.00724
1.01159
1.01801
1.0238
1.02985
1.03528
1.04159
1.04777
1.05478
1.06163
1.06895
1.07565
1.08427
1.09238
1.10017
1.10742
1.11671
1.1249
1.13526
1.14456
1.15611
1.16719
1.1785
1.19093
1.20478
1.22005
1.23497
1.25099
1.26769
1.28661
1.30523
1.32566
1.34362
1.3596
1.3701
1.3805
1.36749
1.35075
1.29652
1.24538
1.1582
1.08905
1.01257
0.961245
0.890341
0.837324
0.783628
0.744428
0.693994
0.674085
0.645879
0.63515
0.615097
0.607808
0.597194
0.592895
0.592543
0.58755
0.585147
0.57893
0.578997
0.579142
0.576963
0.576023
0.575001
0.574365
0.572719
0.570411
0.56968
0.570351
0.569986
0.569512
0.569138
0.568353
0.562729
0.560964
0.558585
0.559087
0.560157
0.560809
0.561782
0.562394
0.56402
0.565278
0.56538
0.562617
0.558254
0.555703
0.552145
0.551667
0.551406
0.550921
0.54973
0.54829
0.547917
0.547344
0.546837
0.545361
0.543692
0.541389
0.540049
0.536503
0.539501
0.538112
0.530711
0.536657
0.552447
0.622183
0.745455
0.805649
0.812677
0.812365
0.819635
0.824192
0.829014
0.833137
0.837567
0.842922
0.848895
0.855457
0.861834
0.869085
0.877927
0.886793
0.892163
0.897921
0.905658
0.91446
0.920818
0.926491
0.932748
0.939696
0.945987
0.95201
0.957678
0.96323
0.968574
0.973685
0.978626
0.983387
0.987652
0.991905
0.99565
0.999442
1.00271
1.00572
1.00847
1.01069
1.01292
1.01455
1.01597
1.01689
1.0176
1.01725
1.0171
1.01772
1.01779
1.01815
1.01822
1.01847
1.01842
1.01867
1.01892
1.01903
1.01926
1.01896
1.01948
1.01947
1.01979
1.01955
1.01936
1.0195
1.01932
1.02023
1.01984
1.01941
1.0195
1.01871
1.01946
1.01969
1.01946
1.01826
1.01968
1.01742
1.01814
1.01801
1.01988
1.01938
1.01964
1.01708
1.02196
1.01972
1.02467
1.02039
1.03136
1.03983
1.01926
1.02362
1.05229
1.04678
1.04511
1.04404
1.05335
1.0523
1.04762
1.03958
1.0366
1.02611
1.0233
1.0154
1.01708
1.00858
1.00909
1.0019
1.00543
1.00324
1.00511
1.02131
1.00281
1.02365
1.01039
1.01389
1.01391
1.01037
1.02271
1.00251
1.02113
1.00522
1.00303
1.00561
1.00184
1.00875
1.00886
1.01691
1.01555
1.02362
1.0268
1.03604
1.03941
1.04709
1.05075
1.05142
1.04584
1.04659
1.0449
1.04523
1.03392
1.03784
1.03861
1.0371
1.03533
1.03664
1.03626
1.03954
1.03782
1.04254
1.04181
1.0468
1.04705
1.0515
1.05296
1.05543
1.05728
1.05967
1.06097
1.06547
1.06553
1.06908
1.07019
1.07275
1.07458
1.07682
1.07823
1.08031
1.08157
1.08379
1.08563
1.08635
1.08782
1.08957
1.0908
1.09198
1.09337
1.09423
1.09541
1.0957
1.09641
1.09661
1.09752
1.0974
1.09785
1.09759
1.09735
1.09695
1.09655
1.09599
1.09557
1.09454
1.09373
1.09268
1.09163
1.09037
1.0889
1.08748
1.08587
1.08385
1.08205
1.07988
1.0776
1.07515
1.07275
1.07016
1.06714
1.06385
1.06039
1.05677
1.05301
1.04886
1.04459
1.04005
1.03542
1.03044
1.02539
1.02019
1.01482
1.00668
0.998511
0.994697
0.990788
0.983853
0.976548
0.968812
0.96116
0.953474
0.946047
0.937376
0.929908
0.922086
0.915136
0.90719
0.901067
0.894506
0.889793
0.884803
0.883837
0.881181
0.884745
0.887947
0.887358
0.897606
0.899119
0.907387
0.911526
0.91852
0.925233
0.931837
0.938192
0.944418
0.95079
0.957235
0.962898
0.967822
0.974513
0.978412
0.986497
0.990138
0.99729
1.00014
1.00787
1.01158
1.01915
1.02404
1.03055
1.03708
1.04216
1.04924
1.05583
1.06274
1.06937
1.07749
1.08521
1.09387
1.10175
1.10943
1.11743
1.12657
1.13662
1.14692
1.15822
1.16972
1.18138
1.19379
1.20801
1.22184
1.23772
1.25314
1.27069
1.28731
1.30586
1.32304
1.34036
1.35507
1.36427
1.3739
1.36155
1.34674
1.30687
1.25398
1.18438
1.11396
1.0407
0.985806
0.917799
0.863874
0.811268
0.767495
0.715435
0.69177
0.657439
0.646023
0.625415
0.617048
0.604331
0.598809
0.59253
0.590757
0.588817
0.583213
0.582237
0.579392
0.579295
0.577733
0.575997
0.575107
0.574473
0.574218
0.571078
0.570766
0.570881
0.570628
0.570702
0.569731
0.563471
0.562107
0.559709
0.559954
0.560941
0.561484
0.562472
0.563098
0.564418
0.56601
0.565959
0.563639
0.559114
0.556798
0.552842
0.552805
0.552081
0.551328
0.550669
0.549368
0.548615
0.547498
0.546879
0.545413
0.544638
0.542987
0.540894
0.536761
0.539721
0.538658
0.530802
0.53639
0.551065
0.619996
0.747054
0.808612
0.814154
0.81271
0.819912
0.824474
0.829269
0.833375
0.837788
0.843131
0.849121
0.855696
0.862068
0.869315
0.877989
0.886816
0.892303
0.898128
0.905866
0.91454
0.920892
0.926594
0.932835
0.939738
0.94601
0.952047
0.957742
0.963296
0.968642
0.973751
0.978699
0.983433
0.987702
0.991918
0.995649
0.999371
1.00267
1.00566
1.00845
1.01065
1.01287
1.01443
1.0159
1.01671
1.01756
1.01738
1.01729
1.01796
1.01782
1.01816
1.01829
1.01824
1.0186
1.01851
1.01905
1.01892
1.01931
1.01912
1.01969
1.01928
1.0194
1.01956
1.0199
1.01969
1.01969
1.01917
1.01953
1.01987
1.02041
1.01959
1.01969
1.01757
1.01905
1.01904
1.01839
1.01851
1.02006
1.01674
1.01857
1.01839
1.0199
1.0167
1.02145
1.01988
1.02449
1.02203
1.0309
1.03739
1.01551
1.02535
1.05083
1.04714
1.04429
1.04511
1.05401
1.05088
1.04659
1.03957
1.03615
1.02524
1.02538
1.01516
1.01734
1.00847
1.00861
1.00113
1.00539
1.00322
1.00566
1.02131
1.00259
1.02362
1.01015
1.01365
1.01403
1.01026
1.0231
1.00277
1.02168
1.00602
1.00352
1.00559
1.00142
1.00878
1.00868
1.01715
1.01573
1.02578
1.02625
1.03683
1.03982
1.04667
1.05035
1.05134
1.04641
1.04707
1.04567
1.04464
1.03464
1.03605
1.03812
1.03917
1.0359
1.0399
1.03782
1.04174
1.04012
1.04473
1.04324
1.04919
1.04784
1.05307
1.05299
1.05683
1.05735
1.06051
1.06163
1.06437
1.06627
1.06889
1.07034
1.07228
1.07442
1.07665
1.07793
1.07965
1.08162
1.08321
1.08537
1.08585
1.08799
1.08907
1.09074
1.09169
1.09278
1.09369
1.09514
1.09542
1.09613
1.09624
1.0971
1.0971
1.09753
1.09733
1.097
1.09665
1.09634
1.09575
1.09519
1.09421
1.09353
1.09243
1.09136
1.09012
1.08868
1.08724
1.08564
1.08367
1.08187
1.0797
1.07744
1.07499
1.07258
1.06997
1.06694
1.06367
1.06022
1.05662
1.05288
1.04877
1.04452
1.03999
1.03539
1.0304
1.02535
1.02014
1.0147
1.00667
0.99877
0.994872
0.99086
0.983915
0.976705
0.969017
0.961411
0.953764
0.94631
0.937777
0.93035
0.92266
0.915707
0.907938
0.901689
0.895384
0.890443
0.88591
0.884317
0.882055
0.885811
0.888681
0.888226
0.898279
0.899963
0.908134
0.912213
0.919228
0.925841
0.932479
0.938958
0.944762
0.951071
0.957592
0.963146
0.968399
0.974753
0.978603
0.986562
0.990158
0.997528
1.00033
1.0082
1.01264
1.01935
1.02495
1.03117
1.03644
1.04323
1.04942
1.056
1.06301
1.07062
1.07791
1.08631
1.09383
1.10171
1.10938
1.11871
1.12722
1.13776
1.14691
1.15837
1.16928
1.18132
1.19373
1.2074
1.22173
1.23592
1.2523
1.26784
1.28542
1.30261
1.31983
1.33514
1.35004
1.35851
1.36712
1.35421
1.34014
1.29108
1.24883
1.17419
1.11296
1.03822
0.98646
0.919894
0.867603
0.81298
0.770731
0.723369
0.697235
0.66442
0.651181
0.630034
0.621518
0.607013
0.604285
0.598364
0.592487
0.591479
0.587227
0.585968
0.58379
0.5809
0.580547
0.578897
0.576728
0.574758
0.574968
0.573866
0.572776
0.571754
0.571614
0.571723
0.570928
0.565669
0.563348
0.560352
0.560718
0.561578
0.562176
0.563082
0.563769
0.565089
0.566453
0.566672
0.564609
0.559773
0.557143
0.553653
0.553161
0.552226
0.55138
0.550778
0.55019
0.549588
0.547914
0.547773
0.54635
0.544101
0.542976
0.541684
0.536949
0.540086
0.540068
0.531661
0.536167
0.549704
0.617561
0.74871
0.812388
0.815553
0.813017
0.820223
0.824923
0.829637
0.833663
0.838004
0.843332
0.849307
0.855901
0.862332
0.869558
0.878203
0.886934
0.892445
0.898296
0.905876
0.91453
0.92093
0.926698
0.932951
0.939824
0.946095
0.952096
0.957751
0.963287
0.968611
0.973716
0.97864
0.983386
0.987648
0.991883
0.995625
0.999382
1.00261
1.0056
1.00828
1.01051
1.01267
1.0143
1.01572
1.01658
1.01735
1.01715
1.0171
1.01765
1.01786
1.01798
1.01808
1.0184
1.01823
1.01867
1.01894
1.01905
1.01926
1.01917
1.01935
1.01943
1.01963
1.0195
1.01972
1.01964
1.01968
1.0197
1.0194
1.01928
1.01989
1.01976
1.02077
1.01834
1.01786
1.01837
1.01989
1.01952
1.02007
1.01668
1.01936
1.01787
1.01994
1.01912
1.02094
1.02046
1.02442
1.02475
1.03056
1.03404
1.01972
1.02804
1.05143
1.04683
1.0449
1.04426
1.05384
1.05359
1.04833
1.03929
1.03634
1.02604
1.02321
1.01541
1.01706
1.0085
1.00919
1.00185
1.00554
1.00334
1.0051
1.02127
1.00276
1.02383
1.01038
1.01395
1.01389
1.0105
1.02265
1.00249
1.02106
1.00522
1.00308
1.00563
1.00171
1.00878
1.00875
1.01696
1.01552
1.02358
1.02676
1.03612
1.03932
1.04687
1.05037
1.05117
1.04624
1.04711
1.04542
1.04463
1.0366
1.0395
1.0399
1.03792
1.03867
1.03939
1.03855
1.0417
1.04103
1.04357
1.04532
1.04758
1.04977
1.05186
1.0541
1.05626
1.05727
1.06095
1.06029
1.06543
1.06595
1.06768
1.07031
1.07217
1.07389
1.07609
1.07704
1.07951
1.08091
1.08304
1.08444
1.08574
1.08706
1.08854
1.09029
1.09118
1.09233
1.09312
1.09468
1.09504
1.09562
1.09566
1.09653
1.09674
1.09724
1.09663
1.09656
1.09626
1.0958
1.09548
1.09489
1.09386
1.09312
1.0921
1.09107
1.08986
1.08839
1.08697
1.08537
1.08339
1.0816
1.07945
1.07719
1.07475
1.07235
1.06976
1.06678
1.06354
1.0601
1.05651
1.05277
1.04865
1.04441
1.0399
1.03527
1.03033
1.02533
1.02015
1.01473
1.00677
0.998983
0.995094
0.990825
0.983972
0.976913
0.969287
0.961731
0.954129
0.946687
0.938235
0.930862
0.92325
0.916236
0.908585
0.902315
0.896122
0.891145
0.886886
0.885116
0.883009
0.886456
0.889703
0.889172
0.898818
0.900683
0.908828
0.912815
0.919807
0.926362
0.932996
0.939416
0.945477
0.951732
0.958148
0.963776
0.968739
0.975616
0.979416
0.987376
0.990854
0.998272
1.00125
1.00903
1.01282
1.02044
1.02542
1.0318
1.03835
1.04372
1.05098
1.05739
1.06426
1.07114
1.07933
1.08699
1.09492
1.10346
1.11151
1.11978
1.1292
1.13898
1.14934
1.16102
1.17201
1.18323
1.1962
1.20956
1.22279
1.23885
1.25317
1.27019
1.28605
1.30303
1.31873
1.33331
1.34516
1.35259
1.36034
1.34812
1.33474
1.29815
1.25359
1.19283
1.13106
1.06264
1.00838
0.943512
0.890179
0.838524
0.795538
0.740513
0.714606
0.679115
0.663587
0.640306
0.630733
0.613428
0.607533
0.604572
0.596871
0.591574
0.588681
0.588202
0.584647
0.58464
0.58263
0.581543
0.579749