/*--------------------------------*- C++ -*----------------------------------*\
| =========                 |                                                 |
| \\      /  F ield         | OpenFOAM: The Open Source CFD Toolbox           |
|  \\    /   O peration     | Version:  v2006                                 |
|   \\  /    A nd           | Website:  www.openfoam.com                      |
|    \\/     M anipulation  |                                                 |
\*---------------------------------------------------------------------------*/
FoamFile
{
    version     2.0;
    format      ascii;
    class       volScalarField;
    location    "100";
    object      pMean;
}
// * * * * * * * * * * * * * * * * * * * * * * * * * * * * * * * * * * * * * //

dimensions      [1 -1 -2 0 0 0 0];


internalField   nonuniform List<scalar> 
93840
(
1.00783
1.01026
1.0078
1.00619
1.00552
1.00128
1.00533
1.00321
1.00416
1.00617
1.00715
1.01098
1.01344
1.01946
1.02438
1.03198
1.0377
1.04258
1.04676
1.04853
1.04513
1.04444
1.04406
1.04014
1.03457
1.03174
1.02763
1.02698
1.02409
1.02618
1.02223
1.0413
1.02147
1.02952
1.03583
1.04037
1.04385
1.04768
1.05065
1.05417
1.05653
1.0591
1.06128
1.06354
1.06565
1.06806
1.07025
1.0722
1.07398
1.07611
1.0778
1.07934
1.08123
1.08364
1.08475
1.08503
1.08602
1.08741
1.08941
1.09085
1.09143
1.09259
1.09382
1.09411
1.09452
1.09507
1.09527
1.09512
1.09532
1.09523
1.09499
1.09478
1.09433
1.09361
1.09306
1.0922
1.09131
1.0903
1.08897
1.08764
1.08638
1.08491
1.08337
1.08133
1.07928
1.07717
1.07485
1.07256
1.07018
1.0676
1.06441
1.06096
1.0575
1.05376
1.04988
1.04559
1.04128
1.03678
1.03209
1.02697
1.02169
1.01641
1.01108
1.00204
0.992631
0.989096
0.98622
0.97891
0.970854
0.962817
0.954916
0.947021
0.939453
0.930267
0.922025
0.913781
0.906591
0.897916
0.891363
0.88449
0.880057
0.87428
0.873154
0.869894
0.873662
0.877216
0.878121
0.887738
0.889733
0.895743
0.903852
0.90956
0.918282
0.922858
0.930003
0.935691
0.944088
0.949106
0.956354
0.960705
0.966612
0.971307
0.978573
0.983435
0.98931
0.993881
0.999412
1.00382
1.01005
1.01565
1.02183
1.02712
1.03346
1.03933
1.04617
1.0523
1.05948
1.06617
1.0744
1.08202
1.08931
1.09562
1.10377
1.11187
1.12114
1.13063
1.14179
1.15223
1.16283
1.17366
1.18768
1.2027
1.21906
1.2331
1.25061
1.26996
1.29226
1.31767
1.34548
1.37027
1.39255
1.41628
1.40307
1.36182
1.26368
1.1474
1.01027
0.918309
0.863299
0.845339
0.763787
0.709809
0.66848
0.645965
0.610209
0.602179
0.591077
0.585801
0.579259
0.575563
0.576139
0.576583
0.576561
0.575533
0.575381
0.576128
0.577093
0.577515
0.5786
0.579077
0.579166
0.579239
0.579122
0.578292
0.578232
0.57866
0.578993
0.578285
0.578066
0.576587
0.572824
0.570581
0.57107
0.571748
0.573179
0.574274
0.575323
0.576267
0.5779
0.579261
0.577419
0.572538
0.569783
0.565766
0.563597
0.56296
0.562779
0.562823
0.562488
0.561866
0.56108
0.559658
0.55816
0.555377
0.553647
0.551728
0.550089
0.545752
0.550398
0.549266
0.547057
0.563369
0.591841
0.629124
0.683408
0.751494
0.794323
0.807267
0.814089
0.820209
0.825857
0.831654
0.837092
0.84314
0.849242
0.855942
0.862011
0.869097
0.878436
0.887666
0.892243
0.897044
0.904924
0.914011
0.919892
0.924686
0.930601
0.937611
0.943993
0.949902
0.955692
0.961358
0.96689
0.972239
0.977449
0.982444
0.987094
0.991562
0.995745
0.999732
1.00337
1.00672
1.00968
1.01232
1.01457
1.01648
1.01803
1.01918
1.01968
1.01904
1.0187
1.01916
1.01966
1.01986
1.02001
1.01997
1.02005
1.01999
1.02011
1.02006
1.02021
1.02018
1.02037
1.02025
1.02042
1.02027
1.02044
1.02028
1.02046
1.02027
1.02048
1.02023
1.0205
1.02018
1.02049
1.02008
1.02047
1.02002
1.02053
1.01987
1.02068
1.01983
1.02157
1.01957
1.02228
1.01916
1.01609
1.01786
1.02219
1.02447
1.02675
1.0307
1.03693
1.03556
1.04032
1.04351
1.04443
1.04629
1.04882
1.04707
1.04275
1.03774
1.03187
1.02427
1.01944
1.01342
1.01089
1.00705
1.00613
1.00394
1.00302
1.00502
1.00109
1.00517
1.00595
1.00765
1.01008
1.00769
1.00768
1.01007
1.00764
1.00594
1.00517
1.00108
1.00502
1.00302
1.00395
1.00614
1.00707
1.01091
1.01345
1.01947
1.02432
1.0319
1.03773
1.0427
1.04695
1.04856
1.04598
1.04444
1.04329
1.04008
1.03516
1.03512
1.03031
1.02763
1.02602
1.02547
1.023
1.02564
1.02728
1.03232
1.0361
1.04026
1.0435
1.04719
1.05
1.05334
1.05573
1.05848
1.06067
1.06309
1.0652
1.06756
1.06964
1.07172
1.07353
1.0756
1.07732
1.07904
1.08079
1.08285
1.08409
1.08481
1.08593
1.08723
1.08897
1.09036
1.09113
1.09224
1.09336
1.09377
1.09424
1.09474
1.09498
1.09489
1.09507
1.09499
1.09477
1.09455
1.09411
1.09342
1.09287
1.09202
1.09113
1.09012
1.08883
1.08751
1.08624
1.08476
1.08322
1.0812
1.07917
1.07706
1.07476
1.07246
1.07007
1.06747
1.06431
1.06088
1.05743
1.05369
1.04982
1.04555
1.04125
1.03675
1.03206
1.02696
1.0217
1.01638
1.011
1.00213
0.992933
0.989255
0.986162
0.978922
0.970988
0.962994
0.955126
0.947248
0.939685
0.930569
0.92241
0.9142
0.907017
0.898438
0.891951
0.885137
0.880697
0.87506
0.873953
0.870783
0.8745
0.877961
0.878971
0.888344
0.890467
0.896481
0.904472
0.910149
0.918788
0.923401
0.930585
0.936224
0.944549
0.949561
0.956798
0.961185
0.967179
0.971884
0.979083
0.983944
0.989875
0.994481
1.00009
1.00459
1.01084
1.01642
1.02266
1.02803
1.03445
1.04037
1.04728
1.05349
1.06079
1.06756
1.07576
1.08333
1.09088
1.09758
1.10597
1.11427
1.12382
1.13348
1.14471
1.15544
1.16689
1.17868
1.19316
1.2078
1.22383
1.23931
1.25829
1.27766
1.29926
1.3206
1.34288
1.36486
1.37886
1.40146
1.38789
1.35945
1.29695
1.20939
1.09796
1.00231
0.927993
0.887403
0.808714
0.754487
0.707532
0.678107
0.635431
0.621121
0.606784
0.598648
0.58992
0.5841
0.582732
0.582404
0.581768
0.58014
0.57937
0.579497
0.580152
0.580327
0.581122
0.581448
0.581404
0.581295
0.581057
0.580077
0.579812
0.580038
0.580304
0.579565
0.5793
0.577932
0.574163
0.571625
0.571905
0.572491
0.57383
0.574866
0.575895
0.576808
0.578391
0.579752
0.578102
0.573302
0.570497
0.566442
0.564142
0.563403
0.5632
0.563225
0.562898
0.562273
0.561498
0.560073
0.558597
0.555809
0.554058
0.5521
0.550562
0.546154
0.550601
0.54976
0.547533
0.563677
0.592216
0.629509
0.683812
0.751902
0.794605
0.807367
0.814161
0.820299
0.82596
0.831766
0.837215
0.84327
0.849368
0.856068
0.862195
0.869314
0.878514
0.887615
0.89232
0.897281
0.905079
0.913999
0.9199
0.924819
0.930757
0.937703
0.944057
0.949978
0.955775
0.96144
0.966971
0.972319
0.977521
0.982507
0.987155
0.991623
0.995801
0.99978
1.00341
1.00675
1.00971
1.01233
1.01457
1.01645
1.018
1.01914
1.01966
1.01912
1.0189
1.01936
1.01976
1.01991
1.02004
1.01999
1.02006
1.01999
1.02012
1.02006
1.0202
1.02017
1.02035
1.02022
1.0204
1.02025
1.02042
1.02026
1.02044
1.02025
1.02046
1.02021
1.02047
1.02014
1.02049
1.02008
1.02051
1.02005
1.02054
1.01986
1.02066
1.01965
1.0212
1.01834
1.02203
1.01432
1.02402
1.01821
1.02107
1.02035
1.02363
1.02605
1.02931
1.03385
1.0402
1.04396
1.04437
1.04518
1.0487
1.04685
1.04261
1.03773
1.03199
1.02436
1.01944
1.01342
1.01098
1.00714
1.00617
1.00416
1.00321
1.00533
1.00128
1.00552
1.00618
1.00779
1.01026
1.00782
1.00784
1.01027
1.00781
1.0062
1.00554
1.0013
1.00535
1.00323
1.00417
1.00619
1.00717
1.01101
1.01348
1.01951
1.02442
1.032
1.03769
1.04254
1.04664
1.04832
1.04541
1.0445
1.04397
1.04013
1.03537
1.03414
1.02999
1.02998
1.02829
1.02998
1.03078
1.03501
1.02801
1.03798
1.03654
1.04266
1.04379
1.0482
1.05014
1.05371
1.05574
1.05857
1.06062
1.06306
1.06512
1.06745
1.06951
1.07157
1.07339
1.07543
1.07715
1.07887
1.08062
1.08262
1.08386
1.08464
1.08579
1.0871
1.0888
1.09016
1.09096
1.09206
1.09316
1.09359
1.09407
1.09457
1.09481
1.09475
1.09492
1.09485
1.09464
1.09441
1.09398
1.0933
1.09275
1.09191
1.09102
1.09001
1.08873
1.08741
1.08614
1.08467
1.08312
1.08112
1.07909
1.07699
1.07469
1.0724
1.07
1.0674
1.06424
1.06082
1.05738
1.05364
1.04977
1.04552
1.04122
1.03673
1.03205
1.02695
1.02169
1.01637
1.01097
1.00215
0.993059
0.989346
0.986168
0.978945
0.971064
0.963093
0.955248
0.947388
0.939824
0.930753
0.922639
0.914455
0.907293
0.898745
0.892325
0.885513
0.881124
0.875475
0.874437
0.871331
0.875024
0.878462
0.879505
0.888783
0.890942
0.896961
0.904893
0.910569
0.919154
0.923793
0.930974
0.93661
0.944888
0.949908
0.957122
0.961536
0.967545
0.972269
0.97943
0.984308
0.990248
0.994887
1.00053
1.00508
1.01133
1.01693
1.02319
1.02861
1.03506
1.04101
1.04794
1.0542
1.06152
1.06834
1.07653
1.0841
1.09171
1.09852
1.10697
1.11532
1.12489
1.13455
1.14571
1.15637
1.16775
1.17934
1.19352
1.20819
1.22452
1.23973
1.25791
1.27732
1.29931
1.32325
1.34737
1.37181
1.38683
1.40638
1.39313
1.36496
1.29327
1.20833
1.09443
1.00644
0.931839
0.894814
0.818825
0.764753
0.715572
0.686107
0.643814
0.628834
0.613343
0.604395
0.595162
0.588754
0.586302
0.585554
0.58473
0.582894
0.581775
0.581515
0.581951
0.581975
0.582634
0.582893
0.582806
0.582581
0.582269
0.581209
0.580775
0.580874
0.5811
0.58033
0.580015
0.578712
0.574967
0.572284
0.572419
0.572948
0.574215
0.575235
0.576252
0.577144
0.578721
0.580086
0.578513
0.573746
0.570902
0.566817
0.564444
0.563655
0.563457
0.563476
0.563154
0.562534
0.561764
0.560338
0.558866
0.556073
0.554309
0.552332
0.55085
0.546378
0.550743
0.550074
0.547696
0.56365
0.592217
0.629361
0.683538
0.751966
0.795157
0.807805
0.814336
0.820412
0.826075
0.831873
0.837315
0.843365
0.849456
0.856157
0.862299
0.869419
0.878571
0.887643
0.892386
0.897379
0.905136
0.914006
0.919925
0.924877
0.930816
0.937742
0.944089
0.950011
0.955806
0.961467
0.966994
0.972339
0.977535
0.982517
0.987162
0.991624
0.995793
0.999764
1.00338
1.00672
1.00967
1.0123
1.01454
1.01644
1.01797
1.01906
1.01952
1.01892
1.01856
1.01901
1.01957
1.01984
1.02
1.01997
1.02005
1.01999
1.0201
1.02005
1.02022
1.0202
1.02037
1.02026
1.02045
1.02029
1.02045
1.02028
1.02046
1.02027
1.02049
1.02024
1.02052
1.02021
1.02053
1.02014
1.02051
1.02004
1.02052
1.01991
1.02058
1.01972
1.02091
1.01956
1.02113
1.01841
1.02081
1.01882
1.02109
1.02292
1.02578
1.0302
1.03622
1.03498
1.04121
1.04375
1.0445
1.04649
1.04906
1.0472
1.0428
1.03775
1.03184
1.02423
1.0194
1.01339
1.01087
1.00705
1.00613
1.00394
1.00302
1.00503
1.0011
1.00518
1.00596
1.00766
1.01009
1.00771
1.00766
1.01005
1.00762
1.00592
1.00515
1.00105
1.005
1.003
1.00394
1.00613
1.00706
1.01091
1.01345
1.01949
1.02434
1.03191
1.03771
1.04265
1.04682
1.04832
1.04584
1.04451
1.04329
1.04029
1.03589
1.03609
1.03282
1.0312
1.02956
1.02935
1.02879
1.03103
1.03262
1.03573
1.03816
1.04171
1.0442
1.04761
1.05001
1.05315
1.05537
1.05813
1.06023
1.06271
1.06475
1.06709
1.06907
1.0712
1.07301
1.07504
1.07675
1.07855
1.08022
1.08208
1.08338
1.08439
1.0856
1.08688
1.08844
1.08977
1.09066
1.09174
1.09277
1.09328
1.09379
1.09426
1.09453
1.09452
1.09468
1.09461
1.09442
1.09419
1.09377
1.09312
1.09256
1.09173
1.09085
1.08984
1.08858
1.08728
1.08601
1.08452
1.08298
1.08099
1.07898
1.07688
1.07459
1.0723
1.06989
1.06729
1.06416
1.06076
1.05731
1.05359
1.04972
1.04548
1.04118
1.03669
1.03202
1.02694
1.0217
1.01636
1.01094
1.00225
0.993313
0.989498
0.986138
0.978982
0.971207
0.963277
0.955464
0.947626
0.940077
0.931054
0.923022
0.914873
0.907698
0.899258
0.892863
0.886141
0.881678
0.876247
0.875143
0.872083
0.875761
0.879076
0.880217
0.889273
0.891553
0.897551
0.905396
0.91103
0.919557
0.92421
0.931431
0.937011
0.945244
0.950247
0.95747
0.9619
0.967992
0.972712
0.979839
0.984703
0.990701
0.995354
1.00107
1.00568
1.01195
1.01752
1.02383
1.02929
1.03581
1.04178
1.04877
1.05508
1.06248
1.06934
1.07752
1.08506
1.09285
1.09991
1.10851
1.11699
1.12674
1.13653
1.14778
1.15867
1.17058
1.18273
1.19719
1.21172
1.22788
1.24372
1.26255
1.28155
1.30288
1.32428
1.34722
1.36483
1.38226
1.39788
1.38641
1.36878
1.30695
1.23504
1.13892
1.05178
0.97352
0.924071
0.849267
0.79448
0.74322
0.709323
0.662756
0.643175
0.625192
0.614115
0.603315
0.595294
0.591363
0.589936
0.588636
0.586435
0.584936
0.584237
0.584496
0.584381
0.584806
0.584951
0.584753
0.584393
0.583991
0.58281
0.582241
0.582161
0.58233
0.581551
0.581217
0.580017
0.576251
0.573273
0.57323
0.573672
0.574871
0.575819
0.57682
0.577685
0.579195
0.580564
0.579213
0.574531
0.571643
0.567524
0.56502
0.564121
0.563891
0.563886
0.563573
0.562945
0.562186
0.560756
0.559313
0.556511
0.554729
0.552717
0.551326
0.546795
0.550946
0.550499
0.548101
0.563814
0.592429
0.629501
0.68372
0.752529
0.795878
0.808138
0.814474
0.820535
0.826198
0.832001
0.837452
0.843506
0.849597
0.856296
0.86248
0.869626
0.878663
0.887621
0.892465
0.897585
0.905289
0.914035
0.919958
0.925002
0.930962
0.937836
0.944159
0.950088
0.95589
0.961553
0.967081
0.972428
0.977617
0.982589
0.987229
0.991683
0.995842
0.999795
1.0034
1.00673
1.00967
1.01229
1.01452
1.01639
1.01791
1.019
1.01952
1.0191
1.01896
1.01938
1.01976
1.01992
1.02005
1.02
1.02008
1.02001
1.02013
1.02006
1.02018
1.02017
1.02038
1.02024
1.02039
1.02025
1.02043
1.02028
1.02045
1.02026
1.02046
1.02021
1.02049
1.02018
1.02054
1.02013
1.02051
1.01996
1.0204
1.01964
1.02033
1.01934
1.02056
1.01901
1.021
1.01733
1.02191
1.01857
1.02139
1.02066
1.02241
1.02564
1.02884
1.0337
1.04035
1.04402
1.04442
1.04525
1.04851
1.04693
1.04264
1.03774
1.03198
1.02432
1.0194
1.01338
1.01094
1.00711
1.00614
1.00414
1.00319
1.00532
1.00126
1.00551
1.00617
1.00778
1.01025
1.00781
1.00785
1.01028
1.00782
1.00622
1.00555
1.00132
1.00537
1.00325
1.00419
1.00622
1.0072
1.01105
1.01352
1.01955
1.02445
1.032
1.03767
1.04251
1.04653
1.04812
1.04555
1.04454
1.0439
1.04014
1.0359
1.03496
1.03163
1.03243
1.03118
1.03317
1.03261
1.03652
1.03376
1.04
1.03892
1.04426
1.0447
1.04898
1.05031
1.0538
1.05552
1.05839
1.06028
1.06276
1.06472
1.06701
1.06897
1.07105
1.07287
1.07486
1.07657
1.07835
1.08002
1.08182
1.08314
1.08417
1.08541
1.08669
1.08822
1.08952
1.09045
1.0915
1.09253
1.09304
1.09358
1.09404
1.09432
1.09432
1.09449
1.09441
1.09423
1.094
1.09359
1.09295
1.09239
1.09157
1.09069
1.08969
1.08844
1.08714
1.08587
1.08439
1.08285
1.08088
1.07887
1.07678
1.07449
1.0722
1.06979
1.06718
1.06405
1.06066
1.05723
1.0535
1.04965
1.04543
1.04114
1.03666
1.03199
1.02692
1.02168
1.01634
1.01087
1.00226
0.993482
0.989617
0.986155
0.979012
0.971307
0.96341
0.955628
0.947816
0.940259
0.931309
0.92333
0.91522
0.908088
0.899665
0.893388
0.886636
0.882288
0.876763
0.875813
0.872842
0.87648
0.879785
0.880955
0.889903
0.892215
0.898225
0.905985
0.911628
0.920078
0.92477
0.931972
0.937557
0.945721
0.95074
0.95792
0.962386
0.96848
0.973227
0.980297
0.985182
0.991176
0.995867
1.00159
1.00626
1.01253
1.01812
1.02443
1.02994
1.03647
1.04247
1.04946
1.05581
1.06321
1.07011
1.07826
1.08581
1.09363
1.10077
1.1094
1.1179
1.12764
1.13739
1.14856
1.15934
1.17111
1.18305
1.19723
1.21166
1.22783
1.24335
1.26149
1.28037
1.30132
1.32296
1.34433
1.36505
1.37782
1.39168
1.37832
1.35735
1.29619
1.22913
1.13115
1.05192
0.973499
0.928286
0.855459
0.802189
0.749521
0.716053
0.67038
0.65072
0.631628
0.619831
0.608552
0.600125
0.595263
0.593529
0.592123
0.589513
0.587666
0.586575
0.586508
0.586247
0.586547
0.586577
0.586358
0.585875
0.585416
0.584182
0.583416
0.583191
0.583323
0.58251
0.582097
0.580991
0.577317
0.574188
0.573933
0.574289
0.575377
0.576314
0.577302
0.578142
0.57965
0.581008
0.579746
0.57512
0.572179
0.56802
0.56542
0.564456
0.564237
0.564227
0.56392
0.563302
0.56255
0.561121
0.559677
0.556874
0.55507
0.553026
0.551721
0.5471
0.551136
0.550914
0.548287
0.563749
0.592441
0.629309
0.683383
0.752892
0.796912
0.808885
0.814794
0.82074
0.826401
0.832182
0.83761
0.84365
0.849726
0.856424
0.862629
0.869768
0.878743
0.887679
0.892567
0.897713
0.905351
0.91403
0.919986
0.925069
0.931025
0.937878
0.944194
0.950123
0.95592
0.961575
0.967092
0.972427
0.977607
0.982573
0.987208
0.991654
0.995802
0.999748
1.00334
1.00666
1.00959
1.01221
1.01444
1.01632
1.01783
1.01887
1.01935
1.0189
1.01866
1.01906
1.01955
1.01981
1.02
1.01998
1.02007
1.02001
1.02011
1.02006
1.02021
1.02016
1.02035
1.02027
1.02047
1.0203
1.02045
1.02027
1.02046
1.02027
1.02048
1.02025
1.02054
1.02025
1.0206
1.0202
1.02055
1.01999
1.02035
1.01964
1.02017
1.01932
1.02027
1.01917
1.0207
1.01886
1.02111
1.01957
1.02151
1.02281
1.02463
1.0283
1.03409
1.03482
1.0415
1.04389
1.04453
1.04667
1.04963
1.04734
1.04285
1.03777
1.03182
1.02419
1.01938
1.01338
1.01086
1.00705
1.00613
1.00394
1.00304
1.00504
1.00111
1.00519
1.00597
1.00767
1.01011
1.00772
1.00765
1.01003
1.00761
1.00591
1.00514
1.00104
1.00499
1.00299
1.00394
1.00613
1.00707
1.01093
1.01347
1.01952
1.02438
1.03193
1.03769
1.0426
1.04669
1.0481
1.04576
1.04458
1.04333
1.04047
1.03667
1.03694
1.03418
1.03338
1.03181
1.03278
1.03252
1.03479
1.03586
1.03855
1.04028
1.04336
1.04527
1.04839
1.05036
1.05332
1.05529
1.05799
1.05994
1.06242
1.06434
1.06666
1.06854
1.07068
1.07245
1.07446
1.07614
1.07797
1.07958
1.08132
1.08266
1.08385
1.08511
1.0864
1.08782
1.08911
1.09008
1.09112
1.0921
1.09267
1.09322
1.09368
1.09398
1.09402
1.09418
1.09412
1.09396
1.09372
1.09333
1.09271
1.09215
1.09134
1.09047
1.08947
1.08825
1.08696
1.08568
1.0842
1.08266
1.0807
1.07871
1.07662
1.07435
1.07206
1.06964
1.06703
1.06394
1.06057
1.05714
1.05343
1.04958
1.04536
1.04108
1.0366
1.03193
1.02688
1.02168
1.01633
1.01086
1.00235
0.993726
0.989793
0.986128
0.979056
0.971468
0.963621
0.95588
0.948098
0.940566
0.931655
0.923782
0.915715
0.908552
0.900273
0.893993
0.887381
0.882889
0.877691
0.876606
0.873658
0.877314
0.880448
0.881735
0.890435
0.892879
0.898855
0.906533
0.912123
0.920516
0.925211
0.932455
0.937976
0.946101
0.951092
0.958287
0.962763
0.968942
0.973679
0.980725
0.985592
0.991647
0.996347
1.00215
1.00686
1.01316
1.01872
1.02509
1.03064
1.03724
1.04327
1.05032
1.05671
1.06419
1.07112
1.07929
1.08683
1.09482
1.10217
1.11096
1.11958
1.12949
1.13937
1.15064
1.16164
1.17381
1.18613
1.20049
1.21484
1.23087
1.24666
1.26496
1.28318
1.30335
1.32269
1.34276
1.35875
1.37244
1.38601
1.3732
1.36051
1.30662
1.24692
1.16444
1.08653
1.00957
0.955791
0.884726
0.830192
0.776502
0.739298
0.690355
0.666153
0.644363
0.630301
0.617364
0.607251
0.600607
0.597836
0.595719
0.592925
0.590797
0.589161
0.588963
0.588529
0.588695
0.588611
0.588388
0.58774
0.587194
0.585842
0.58494
0.584528
0.58462
0.583818
0.583399
0.582403
0.578721
0.57529
0.574852
0.575109
0.576141
0.576989
0.577968
0.578782
0.580196
0.581558
0.580594
0.576083
0.573097
0.568904
0.566144
0.565037
0.56477
0.564727
0.564433
0.563803
0.563068
0.561632
0.560232
0.557418
0.555594
0.553507
0.552317
0.547629
0.551372
0.551409
0.548702
0.563791
0.592533
0.629218
0.683233
0.753617
0.798122
0.80952
0.815034
0.820942
0.826593
0.832375
0.837806
0.843842
0.84992
0.856611
0.862849
0.869997
0.878842
0.887663
0.892667
0.89792
0.905502
0.914082
0.92004
0.925199
0.931165
0.937963
0.944253
0.950184
0.955983
0.961641
0.967164
0.972504
0.977677
0.982629
0.987256
0.991691
0.995822
0.999743
1.00331
1.00662
1.00955
1.01216
1.01438
1.01624
1.01773
1.01879
1.01934
1.01907
1.01901
1.01937
1.01971
1.01988
1.02004
1.02
1.02009
1.02005
1.02017
1.02007
1.02019
1.02015
1.02032
1.02021
1.02039
1.02026
1.02044
1.02029
1.02046
1.02025
1.02045
1.02021
1.02049
1.0202
1.02059
1.02019
1.02057
1.01997
1.02034
1.01954
1.02009
1.01912
1.02006
1.01888
1.0204
1.01871
1.02116
1.01959
1.0217
1.02216
1.0232
1.02546
1.02863
1.03319
1.04075
1.04418
1.04451
1.04536
1.04854
1.047
1.04267
1.03776
1.03197
1.02429
1.01936
1.01335
1.01092
1.00709
1.00613
1.00413
1.00317
1.00531
1.00125
1.0055
1.00616
1.00777
1.01024
1.0078
1.00787
1.01029
1.00783
1.00623
1.00556
1.00133
1.00538
1.00327
1.0042
1.00623
1.00722
1.01107
1.01356
1.01959
1.02449
1.03201
1.03765
1.04246
1.04641
1.04792
1.04559
1.04463
1.04381
1.04029
1.03668
1.03608
1.03347
1.03443
1.03362
1.03573
1.03498
1.03844
1.03716
1.04176
1.0412
1.04561
1.04595
1.04979
1.05083
1.0541
1.05557
1.05836
1.06008
1.06253
1.06437
1.06662
1.06847
1.07054
1.07232
1.07426
1.07595
1.07774
1.07934
1.08104
1.0824
1.08359
1.08488
1.08615
1.08756
1.08881
1.08981
1.09083
1.0918
1.09238
1.09295
1.0934
1.09372
1.09377
1.09394
1.09387
1.09372
1.09349
1.0931
1.09249
1.09194
1.09113
1.09027
1.08927
1.08806
1.08678
1.0855
1.08403
1.08249
1.08056
1.07857
1.07649
1.07423
1.07193
1.06952
1.0669
1.06379
1.06044
1.05702
1.05331
1.04948
1.04529
1.04103
1.03656
1.03191
1.02686
1.02165
1.0163
1.01077
1.00235
0.993937
0.98994
0.986162
0.979102
0.971597
0.963787
0.956084
0.948339
0.94079
0.931978
0.924163
0.916142
0.909042
0.900763
0.894646
0.887967
0.88365
0.878272
0.877394
0.874563
0.878154
0.881289
0.882597
0.891179
0.893645
0.899631
0.907205
0.912805
0.921103
0.925837
0.933049
0.938573
0.946618
0.951627
0.958771
0.963282
0.969455
0.974218
0.981204
0.986092
0.99214
0.996879
1.00269
1.00746
1.01375
1.01933
1.0257
1.03129
1.0379
1.04396
1.05101
1.05743
1.06492
1.07187
1.08002
1.08756
1.09556
1.10297
1.11177
1.12039
1.13026
1.14008
1.15124
1.1621
1.1741
1.18619
1.20026
1.21442
1.23027
1.24572
1.26335
1.28133
1.30084
1.32021
1.33901
1.35625
1.36652
1.37851
1.36418
1.34642
1.29247
1.23951
1.15467
1.08456
1.00713
0.957982
0.888038
0.835801
0.781254
0.744898
0.697126
0.673376
0.650633
0.635954
0.622716
0.612398
0.604827
0.601955
0.599659
0.596483
0.593911
0.591982
0.591371
0.590806
0.590701
0.590494
0.590147
0.589423
0.588752
0.587358
0.586254
0.585728
0.585684
0.584878
0.58438
0.583449
0.579918
0.576344
0.575618
0.575776
0.576732
0.57754
0.578524
0.579289
0.580716
0.582042
0.581177
0.576764
0.573728
0.5695
0.566638
0.565453
0.565195
0.565143
0.564856
0.564241
0.563513
0.562079
0.560675
0.557866
0.556016
0.553882
0.552809
0.548018
0.551608
0.551894
0.548929
0.56369
0.592568
0.629028
0.682912
0.754406
0.799667
0.810572
0.815485
0.821237
0.82689
0.832634
0.838029
0.844042
0.850093
0.856786
0.863051
0.870191
0.878965
0.887768
0.89281
0.898086
0.905583
0.914074
0.920076
0.925279
0.931241
0.938019
0.944305
0.950233
0.956024
0.961669
0.967172
0.972493
0.977652
0.982599
0.987221
0.991648
0.99577
0.999686
1.00325
1.00654
1.00944
1.01203
1.01425
1.01612
1.0176
1.01861
1.01912
1.01885
1.01873
1.01907
1.01949
1.01974
1.01995
1.01997
1.02006
1.02002
1.02016
1.02012
1.02024
1.02013
1.02029
1.02022
1.02042
1.02028
1.02045
1.02027
1.02047
1.02028
1.02049
1.02026
1.02057
1.02028
1.02063
1.02024
1.02059
1.02003
1.02038
1.01964
1.02013
1.01927
1.02009
1.01908
1.02039
1.01919
1.0211
1.02004
1.0222
1.02297
1.02486
1.02747
1.03207
1.03407
1.04168
1.0441
1.04458
1.04688
1.04999
1.04747
1.0429
1.03778
1.0318
1.02416
1.01935
1.01336
1.01085
1.00704
1.00613
1.00395
1.00304
1.00504
1.00113
1.00519
1.00598
1.00768
1.01012
1.00774
1.00763
1.01002
1.0076
1.0059
1.00512
1.00103
1.00498
1.00298
1.00393
1.00613
1.00707
1.01094
1.01349
1.01954
1.02441
1.03194
1.03767
1.04255
1.04655
1.04788
1.04575
1.04468
1.04342
1.04074
1.03757
1.03793
1.03544
1.03544
1.03416
1.03555
1.03544
1.03767
1.03841
1.04094
1.04221
1.04498
1.04648
1.04932
1.05096
1.05371
1.05543
1.05803
1.05979
1.06222
1.064
1.06628
1.06805
1.07017
1.07188
1.07387
1.0755
1.07732
1.07887
1.08055
1.08191
1.08321
1.08449
1.08578
1.08712
1.08836
1.08937
1.09039
1.09132
1.09195
1.09253
1.09299
1.09331
1.09341
1.09357
1.09352
1.09338
1.09315
1.09277
1.09219
1.09164
1.09084
1.08999
1.089
1.08781
1.08655
1.08527
1.08379
1.08226
1.08032
1.07836
1.07628
1.07403
1.07174
1.06932
1.06671
1.06365
1.06032
1.05691
1.05322
1.04938
1.04519
1.04093
1.03647
1.03181
1.0268
1.02164
1.0163
1.01077
1.00244
0.994169
0.990137
0.98614
0.979154
0.971776
0.964026
0.956371
0.948662
0.941151
0.932367
0.924676
0.916707
0.909553
0.901447
0.895293
0.888802
0.884248
0.879304
0.878219
0.87541
0.879058
0.881988
0.883411
0.891741
0.894336
0.900278
0.907772
0.913317
0.92156
0.926294
0.933545
0.939006
0.947016
0.951997
0.959159
0.963679
0.969931
0.974684
0.981653
0.986527
0.992635
0.997383
1.00327
1.00808
1.01441
1.01997
1.0264
1.03202
1.03869
1.04478
1.05189
1.05836
1.06591
1.07291
1.08107
1.08864
1.09679
1.10438
1.11332
1.12207
1.13208
1.14202
1.15328
1.16434
1.1766
1.18898
1.2031
1.2172
1.23285
1.24831
1.26578
1.28296
1.30161
1.31905
1.33656
1.35084
1.36098
1.37197
1.35908
1.34444
1.30191
1.25059
1.18008
1.1109
1.03784
0.982863
0.915441
0.861822
0.807158
0.767735
0.717674
0.689693
0.66421
0.647183
0.632256
0.620226
0.610709
0.6063
0.603148
0.599823
0.597039
0.59451
0.593744
0.592968
0.592822
0.592512
0.592124
0.59129
0.590507
0.589024
0.587786
0.587085
0.586963
0.586186
0.585677
0.584874
0.581339
0.577472
0.576575
0.576627
0.57749
0.578216
0.57918
0.579882
0.581345
0.582622
0.582079
0.577792
0.57472
0.570468
0.567439
0.566094
0.565779
0.565694
0.565428
0.564803
0.564098
0.56266
0.561313
0.558493
0.556627
0.554438
0.55351
0.54865
0.551853
0.552457
0.549399
0.563639
0.59266
0.6289
0.682581
0.755364
0.801415
0.811511
0.815823
0.821524
0.82716
0.832902
0.838293
0.844293
0.850348
0.857026
0.863315
0.870449
0.879076
0.887762
0.892936
0.898301
0.90574
0.914156
0.920154
0.925416
0.931378
0.938094
0.94435
0.950276
0.956067
0.961715
0.967228
0.972557
0.977709
0.982638
0.98725
0.991663
0.995763
0.999648
1.00318
1.00645
1.00936
1.01195
1.01416
1.016
1.01747
1.0185
1.01908
1.01898
1.01902
1.01933
1.01963
1.0198
1.01996
1.01997
1.02009
1.02002
1.02017
1.02012
1.02027
1.02021
1.0203
1.02015
1.02033
1.02022
1.02042
1.02027
1.02046
1.02026
1.02046
1.02021
1.0205
1.02022
1.02061
1.02022
1.02059
1.01998
1.02035
1.01957
1.0201
1.01919
1.02005
1.01908
1.02033
1.01923
1.02114
1.02025
1.02251
1.02311
1.02484
1.02716
1.02956
1.03287
1.04108
1.04428
1.04467
1.04553
1.04873
1.04698
1.04269
1.03777
1.03196
1.02425
1.01932
1.01331
1.0109
1.00707
1.00611
1.00412
1.00316
1.00529
1.00124
1.00549
1.00615
1.00776
1.01023
1.00779
1.00788
1.0103
1.00785
1.00624
1.00558
1.00134
1.0054
1.00328
1.00422
1.00626
1.00724
1.0111
1.01359
1.01963
1.02452
1.03202
1.03763
1.04242
1.04629
1.04773
1.04562
1.04471
1.04365
1.04062
1.03757
1.03743
1.03524
1.03659
1.03574
1.038
1.03726
1.0404
1.03969
1.04342
1.0432
1.04689
1.04726
1.05064
1.05153
1.05453
1.05581
1.05847
1.06001
1.06239
1.06408
1.06627
1.068
1.07004
1.07174
1.07366
1.07528
1.07706
1.0786
1.08024
1.08161
1.0829
1.0842
1.08547
1.0868
1.08801
1.08904
1.09004
1.09098
1.0916
1.0922
1.09264
1.09299
1.09309
1.09326
1.09322
1.09309
1.09286
1.09249
1.09192
1.09137
1.09058
1.08974
1.08875
1.08757
1.08632
1.08505
1.08358
1.08204
1.08015
1.07819
1.07612
1.07388
1.07159
1.06917
1.06654
1.06347
1.06016
1.05675
1.05307
1.04925
1.04511
1.04087
1.03642
1.03179
1.02678
1.0216
1.01626
1.01066
1.00244
0.994416
0.990312
0.986192
0.97922
0.971936
0.964225
0.956618
0.948953
0.94142
0.932755
0.925126
0.917246
0.910084
0.902169
0.8959
0.889661
0.884874
0.880344
0.878702
0.876352
0.879919
0.882872
0.884305
0.892523
0.895129
0.901086
0.908469
0.914029
0.922169
0.926947
0.934154
0.939626
0.94755
0.952556
0.95966
0.964219
0.970456
0.975242
0.982148
0.987049
0.99314
0.997935
1.00382
1.00869
1.015
1.02059
1.02701
1.03268
1.03935
1.04547
1.05257
1.05908
1.06661
1.07365
1.08177
1.08934
1.09748
1.10513
1.11403
1.12278
1.13271
1.14258
1.15369
1.16459
1.17664
1.18878
1.20259
1.21643
1.23179
1.24687
1.26371
1.28055
1.29851
1.31556
1.33216
1.34641
1.35484
1.36467
1.35092
1.33567
1.28686
1.24363
1.16935
1.10776
1.03386
0.983648
0.916663
0.865743
0.810576
0.772319
0.723545
0.696426
0.67025
0.652754
0.63756
0.625406
0.615144
0.610754
0.6073
0.603784
0.600527
0.597647
0.596552
0.595496
0.595096
0.594565
0.594095
0.593123
0.59224
0.590696
0.589295
0.588433
0.588167
0.587346
0.586772
0.585991
0.582652
0.578661
0.577441
0.577422
0.578144
0.578873
0.57975
0.580472
0.581799
0.583144
0.582807
0.578516
0.5754
0.571123
0.567995
0.56656
0.566241
0.566149
0.565894
0.565276
0.564583
0.563145
0.561803
0.559002
0.557112
0.554864
0.554081
0.549119
0.552111
0.552971
0.549686
0.563502
0.592758
0.628777
0.682174
0.756396
0.803514
0.812894
0.816414
0.821906
0.827555
0.833246
0.838585
0.844553
0.850572
0.857255
0.863578
0.870704
0.879248
0.887916
0.893124
0.89851
0.905843
0.914148
0.920203
0.92551
0.931468
0.938169
0.944423
0.950342
0.95612
0.961748
0.967231
0.972534
0.97767
0.982594
0.987197
0.991605
0.9957
0.999584
1.00311
1.00637
1.00923
1.01179
1.01398
1.01584
1.01729
1.01829
1.01883
1.01874
1.01875
1.01906
1.01942
1.01965
1.01987
1.01989
1.02004
1.02001
1.02015
1.02009
1.02026
1.02022
1.02037
1.02024
1.02038
1.02021
1.02038
1.02023
1.02045
1.02027
1.02051
1.02027
1.02056
1.02026
1.0206
1.02022
1.02057
1.02003
1.0204
1.01969
1.0202
1.01937
1.02019
1.01931
1.02051
1.0196
1.02124
1.02071
1.02314
1.02382
1.02638
1.02841
1.0318
1.03341
1.04178
1.04412
1.04467
1.04716
1.05023
1.04769
1.04295
1.03779
1.03177
1.02412
1.01932
1.01334
1.01083
1.00703
1.00613
1.00395
1.00304
1.00505
1.00114
1.0052
1.00599
1.00769
1.01013
1.00775
1.00762
1.01
1.00758
1.00589
1.00511
1.00102
1.00497
1.00297
1.00393
1.00613
1.00708
1.01095
1.01351
1.01957
1.02445
1.03196
1.03765
1.04249
1.0464
1.04767
1.04576
1.04479
1.04354
1.04096
1.03869
1.03906
1.03676
1.03745
1.03637
1.03802
1.03793
1.04008
1.04065
1.043
1.044
1.04651
1.04773
1.05032
1.05168
1.05425
1.05572
1.0582
1.05975
1.06211
1.06372
1.06595
1.06758
1.06967
1.07128
1.07325
1.0748
1.07661
1.07809
1.07974
1.08109
1.08246
1.08373
1.08503
1.0863
1.08751
1.08854
1.08954
1.09044
1.09111
1.09171
1.09217
1.09252
1.09266
1.09282
1.0928
1.09268
1.09246
1.0921
1.09155
1.09101
1.09024
1.0894
1.08843
1.08727
1.08603
1.08476
1.08329
1.08176
1.07986
1.07793
1.07586
1.07363
1.07135
1.06892
1.0663
1.06328
1.06001
1.05661
1.05295
1.04912
1.04497
1.04074
1.0363
1.03166
1.02669
1.02158
1.01626
1.01068
1.00253
0.994639
0.99053
0.986185
0.979281
0.972138
0.964495
0.956937
0.949316
0.941799
0.933229
0.925604
0.91782
0.910625
0.902864
0.896541
0.890461
0.88558
0.881381
0.879471
0.877262
0.880826
0.883604
0.885146
0.893118
0.895848
0.901755
0.909061
0.914567
0.922654
0.927428
0.934671
0.940081
0.947973
0.952949
0.960071
0.964637
0.97095
0.975724
0.98262
0.98751
0.99366
0.998462
1.00443
1.00932
1.01568
1.02125
1.02773
1.03344
1.04017
1.04632
1.05348
1.06002
1.06763
1.0747
1.08285
1.09045
1.09873
1.10653
1.11556
1.12443
1.13448
1.14446
1.15566
1.16671
1.17894
1.19123
1.20504
1.21876
1.23388
1.24876
1.26523
1.28122
1.29829
1.31379
1.32922
1.34134
1.34895
1.35801
1.34495
1.33074
1.2945
1.25032
1.18917
1.12783
1.0598
1.00554
0.941801
0.889521
0.835087
0.794303
0.744207
0.713285
0.684559
0.664662
0.647781
0.633966
0.621657
0.61548
0.610943
0.607125
0.603601
0.600247
0.598859
0.597646
0.59716