/*--------------------------------*- C++ -*----------------------------------*\
| =========                 |                                                 |
| \\      /  F ield         | OpenFOAM: The Open Source CFD Toolbox           |
|  \\    /   O peration     | Version:  v2006                                 |
|   \\  /    A nd           | Website:  www.openfoam.com                      |
|    \\/     M anipulation  |                                                 |
\*---------------------------------------------------------------------------*/
FoamFile
{
    version     2.0;
    format      ascii;
    class       volScalarField;
    location    "100";
    object      pPrime2Mean;
}
// * * * * * * * * * * * * * * * * * * * * * * * * * * * * * * * * * * * * * //

dimensions      [2 -2 -4 0 0 0 0];


internalField   nonuniform List<scalar> 
93840
(
3.81153e-05
2.87342e-05
6.78315e-05
4.59015e-05
9.9452e-05
2.67458e-05
2.08278e-05
6.73475e-05
2.85873e-05
6.57423e-05
2.94869e-05
5.46458e-05
4.16261e-05
3.2903e-05
3.46189e-05
2.55219e-05
2.95086e-05
2.07726e-05
2.85529e-05
2.67507e-05
2.10571e-05
2.18903e-05
2.82156e-05
4.319e-05
8.95879e-05
0.000165427
0.000159055
9.65717e-05
3.92572e-05
2.98848e-05
2.78548e-05
2.89692e-05
2.31308e-05
2.08556e-05
2.03306e-05
2.02694e-05
2.04973e-05
2.04487e-05
2.06859e-05
2.11669e-05
2.09732e-05
2.079e-05
2.09038e-05
2.09533e-05
2.10232e-05
2.11149e-05
2.13656e-05
2.14341e-05
2.16801e-05
2.1799e-05
2.2072e-05
2.21109e-05
2.24267e-05
2.26523e-05
2.28309e-05
2.271e-05
2.28723e-05
2.29943e-05
2.33525e-05
2.35314e-05
2.36126e-05
2.37746e-05
2.39803e-05
2.40098e-05
2.40753e-05
2.41815e-05
2.42231e-05
2.42415e-05
2.43158e-05
2.43909e-05
2.44085e-05
2.4473e-05
2.44857e-05
2.4502e-05
2.45233e-05
2.45447e-05
2.45734e-05
2.46114e-05
2.46033e-05
2.46672e-05
2.47365e-05
2.48331e-05
2.49439e-05
2.50175e-05
2.51228e-05
2.52694e-05
2.54022e-05
2.55726e-05
2.5752e-05
2.60109e-05
2.6139e-05
2.6383e-05
2.65959e-05
2.68654e-05
2.71519e-05
2.74136e-05
2.77275e-05
2.8083e-05
2.84645e-05
2.88623e-05
2.92518e-05
2.97588e-05
3.02736e-05
3.07244e-05
3.1254e-05
3.19602e-05
3.27289e-05
3.34237e-05
3.42241e-05
3.51437e-05
3.61404e-05
3.72086e-05
3.84133e-05
3.97306e-05
4.11768e-05
4.25656e-05
4.42801e-05
4.62111e-05
4.81576e-05
4.97843e-05
5.14339e-05
5.27911e-05
5.41309e-05
5.54774e-05
5.36117e-05
5.58442e-05
5.30859e-05
5.48604e-05
5.16561e-05
5.3948e-05
5.00393e-05
5.21349e-05
4.87001e-05
5.0679e-05
4.81702e-05
4.95975e-05
4.74524e-05
4.86885e-05
4.72587e-05
4.84779e-05
4.76532e-05
4.87723e-05
4.80022e-05
4.914e-05
4.88682e-05
5.01006e-05
5.01937e-05
5.15715e-05
5.16926e-05
5.29917e-05
5.33468e-05
5.4842e-05
5.54467e-05
5.69374e-05
5.77124e-05
5.93175e-05
6.02607e-05
6.19126e-05
6.28726e-05
6.45066e-05
6.60464e-05
6.84173e-05
7.00105e-05
7.22173e-05
7.39763e-05
7.63395e-05
7.76514e-05
7.97785e-05
8.13797e-05
8.40391e-05
8.62662e-05
9.21653e-05
9.23363e-05
8.80227e-05
8.88497e-05
9.49397e-05
9.17904e-05
9.00087e-05
7.98892e-05
7.37995e-05
6.31578e-05
6.1792e-05
9.0751e-05
0.000269763
0.000523738
0.000720297
0.000789667
0.000725422
0.000546473
0.000394345
0.000333235
0.000330128
0.000327386
0.000220325
0.000157253
0.000224329
0.000155214
0.000187148
0.000140663
0.000158282
0.000127196
0.000124483
0.000112671
0.000111809
9.95579e-05
9.96532e-05
9.82963e-05
0.000101828
0.000104902
0.00010849
0.000108112
0.000106887
0.000102323
9.74817e-05
9.0127e-05
8.55928e-05
8.15883e-05
7.99548e-05
7.8466e-05
7.48914e-05
7.87905e-05
6.74171e-05
6.34703e-05
6.37395e-05
6.22362e-05
6.01334e-05
5.53752e-05
5.2191e-05
4.77751e-05
4.49428e-05
4.42017e-05
4.16952e-05
3.69041e-05
3.29504e-05
3.13425e-05
3.09373e-05
3.38857e-05
3.80597e-05
3.97168e-05
4.08761e-05
3.91896e-05
3.70555e-05
3.49123e-05
3.03394e-05
2.96095e-05
2.96919e-05
3.24142e-05
4.08383e-05
4.66376e-05
0.000107235
0.000418909
0.00190701
0.00595567
0.00858039
0.00674448
0.00261413
0.00035533
9.73179e-05
0.00011174
0.000124053
0.000130673
0.000124481
0.000113418
0.000100538
8.96247e-05
8.03317e-05
7.37746e-05
6.69326e-05
5.83847e-05
5.15544e-05
4.99146e-05
4.92119e-05
4.51753e-05
4.10356e-05
3.94851e-05
3.9251e-05
3.77963e-05
3.56207e-05
3.37862e-05
3.24015e-05
3.09137e-05
2.9483e-05
2.79245e-05
2.64365e-05
2.48371e-05
2.33415e-05
2.19096e-05
2.05601e-05
1.9317e-05
1.82398e-05
1.73642e-05
1.66554e-05
1.61119e-05
1.55787e-05
1.52511e-05
1.48478e-05
1.4955e-05
1.45871e-05
1.79953e-05
2.11082e-05
1.85923e-05
1.70339e-05
1.69122e-05
1.66146e-05
1.70892e-05
1.6733e-05
1.72292e-05
1.6814e-05
1.72733e-05
1.68141e-05
1.71816e-05
1.67037e-05
1.71364e-05
1.6657e-05
1.71077e-05
1.66522e-05
1.70997e-05
1.6662e-05
1.7183e-05
1.67322e-05
1.72273e-05
1.68036e-05
1.72959e-05
1.68777e-05
1.73902e-05
1.6916e-05
1.73317e-05
1.68385e-05
1.74184e-05
1.70002e-05
1.80651e-05
2.28138e-05
2.13987e-05
5.57275e-05
3.07864e-05
9.13648e-05
7.06685e-05
5.41037e-05
3.46633e-05
5.46806e-05
0.000133664
0.000197489
0.00017406
0.000108785
4.56661e-05
2.92303e-05
2.24973e-05
2.19293e-05
2.70926e-05
2.80667e-05
2.0757e-05
3.00152e-05
2.58159e-05
3.42158e-05
3.31596e-05
4.1222e-05
5.45921e-05
2.97412e-05
6.39283e-05
2.79835e-05
6.63923e-05
2.18511e-05
2.63152e-05
0.000100014
4.48999e-05
6.77847e-05
2.92114e-05
3.76987e-05
3.77179e-05
2.91859e-05
6.77803e-05
4.49162e-05
9.99623e-05
2.62837e-05
2.18439e-05
6.64487e-05
2.80023e-05
6.39655e-05
2.97029e-05
5.46444e-05
4.1245e-05
3.31764e-05
3.4173e-05
2.57768e-05
2.99159e-05
2.08246e-05
2.77591e-05
2.635e-05
2.11431e-05
2.22504e-05
2.77489e-05
4.04322e-05
7.44666e-05
7.33727e-05
7.10812e-05
4.55889e-05
2.84654e-05
2.52058e-05
2.35937e-05
2.23909e-05
2.14902e-05
2.10279e-05
2.10753e-05
2.12847e-05
2.03721e-05
2.01438e-05
2.02886e-05
2.0538e-05
2.08043e-05
2.09406e-05
2.0776e-05
2.07298e-05
2.09135e-05
2.10224e-05
2.12604e-05
2.13341e-05
2.15901e-05
2.16934e-05
2.19741e-05
2.20445e-05
2.23337e-05
2.24987e-05
2.27031e-05
2.26641e-05
2.28441e-05
2.2954e-05
2.32456e-05
2.34208e-05
2.35355e-05
2.36898e-05
2.38733e-05
2.3926e-05
2.4002e-05
2.40982e-05
2.41561e-05
2.41844e-05
2.42623e-05
2.43321e-05
2.43581e-05
2.44204e-05
2.44414e-05
2.44626e-05
2.44841e-05
2.4511e-05
2.4541e-05
2.45782e-05
2.45802e-05
2.46433e-05
2.47152e-05
2.4811e-05
2.49252e-05
2.49971e-05
2.51074e-05
2.52538e-05
2.53863e-05
2.55583e-05
2.5737e-05
2.59913e-05
2.61256e-05
2.63715e-05
2.6587e-05
2.68563e-05
2.71441e-05
2.74078e-05
2.77226e-05
2.808e-05
2.84606e-05
2.88577e-05
2.92498e-05
2.97534e-05
3.02641e-05
3.07252e-05
3.12677e-05
3.19661e-05
3.27223e-05
3.34187e-05
3.42253e-05
3.51437e-05
3.61402e-05
3.72082e-05
3.84108e-05
3.97272e-05
4.11819e-05
4.256e-05
4.42737e-05
4.62013e-05
4.8143e-05
4.97618e-05
5.14071e-05
5.27772e-05
5.40789e-05
5.54525e-05
5.35867e-05
5.5817e-05
5.30653e-05
5.48376e-05
5.16246e-05
5.39287e-05
5.00067e-05
5.21015e-05
4.86771e-05
5.06536e-05
4.81416e-05
4.95635e-05
4.74304e-05
4.86541e-05
4.72261e-05
4.84444e-05
4.76229e-05
4.87268e-05
4.79656e-05
4.90926e-05
4.8826e-05
5.0051e-05
5.01372e-05
5.14953e-05
5.16257e-05
5.29089e-05
5.32752e-05
5.47358e-05
5.53375e-05
5.6798e-05
5.75653e-05
5.91253e-05
6.00696e-05
6.16683e-05
6.26366e-05
6.42342e-05
6.5717e-05
6.79418e-05
6.95042e-05
7.16133e-05
7.31685e-05
7.52013e-05
7.64128e-05
7.87195e-05
8.09579e-05
8.41329e-05
8.42729e-05
8.24672e-05
8.24856e-05
9.07923e-05
8.98086e-05
8.32939e-05
7.79461e-05
7.20985e-05
7.09374e-05
6.72773e-05
5.92183e-05
6.25094e-05
9.26887e-05
0.000148335
0.000305692
0.000434906
0.000515408
0.000547252
0.000456903
0.000354934
0.000324042
0.00032668
0.000303377
0.000203959
0.000155517
0.00023018
0.00015685
0.000187366
0.00013972
0.000157745
0.000127331
0.000124023
0.000112065
0.000111576
9.94051e-05
9.98024e-05
9.81997e-05
0.000101676
0.000104749
0.000108399
0.00010795
0.00010683
0.000102268
9.73053e-05
8.99897e-05
8.55208e-05
8.1546e-05
7.9983e-05
7.84722e-05
7.49283e-05
7.88988e-05
6.73363e-05
6.34789e-05
6.37793e-05
6.22628e-05
6.01162e-05
5.53483e-05
5.21778e-05
4.77837e-05
4.49474e-05
4.41844e-05
4.16965e-05
3.69344e-05
3.29347e-05
3.13685e-05
3.09753e-05
3.38948e-05
3.80727e-05
3.97212e-05
4.08692e-05
3.918e-05
3.70523e-05
3.49179e-05
3.03315e-05
2.96187e-05
2.97114e-05
3.24331e-05
4.08038e-05
4.66003e-05
0.000106549
0.000415996
0.00190697
0.00596547
0.00858466
0.00673986
0.00260275
0.000349002
9.56197e-05
0.000110522
0.000122981
0.000129686
0.000123622
0.000112716
9.99753e-05
8.92017e-05
7.99908e-05
7.33962e-05
6.65698e-05
5.8269e-05
5.16266e-05
4.9819e-05
4.89646e-05
4.5051e-05
4.10683e-05
3.94867e-05
3.91406e-05
3.7677e-05
3.55722e-05
3.37663e-05
3.2375e-05
3.08877e-05
2.94609e-05
2.79036e-05
2.64167e-05
2.48247e-05
2.33381e-05
2.19121e-05
2.05691e-05
1.93335e-05
1.82641e-05
1.73926e-05
1.66848e-05
1.61503e-05
1.56375e-05
1.53468e-05
1.49119e-05
1.49857e-05
1.46478e-05
1.78948e-05
2.05678e-05
1.817e-05
1.72647e-05
1.70265e-05
1.65938e-05
1.71326e-05
1.67543e-05
1.72389e-05
1.68095e-05
1.72743e-05
1.68278e-05
1.71932e-05
1.66965e-05
1.711e-05
1.66944e-05
1.70952e-05
1.66381e-05
1.70921e-05
1.66379e-05
1.71346e-05
1.6655e-05
1.71481e-05
1.66526e-05
1.7186e-05
1.66743e-05
1.72759e-05
1.66408e-05
1.73247e-05
1.68984e-05
1.76089e-05
1.78771e-05
1.78436e-05
1.947e-05
1.79871e-05
2.11787e-05
1.94053e-05
3.79888e-05
2.13536e-05
2.87267e-05
2.67856e-05
5.31662e-05
0.000136374
0.000212899
0.000226023
0.000135628
5.33645e-05
2.94091e-05
2.21262e-05
2.12934e-05
2.72756e-05
2.87371e-05
2.06807e-05
2.95142e-05
2.54836e-05
3.4605e-05
3.28906e-05
4.16693e-05
5.47438e-05
2.94929e-05
6.56399e-05
2.85483e-05
6.74216e-05
2.08344e-05
2.67858e-05
9.94713e-05
4.59268e-05
6.78385e-05
2.87232e-05
3.81157e-05
3.81175e-05
2.87437e-05
6.78337e-05
4.58667e-05
9.94152e-05
2.66832e-05
2.08368e-05
6.72977e-05
2.86481e-05
6.5846e-05
2.94799e-05
5.46396e-05
4.1641e-05
3.29107e-05
3.4605e-05
2.55955e-05
2.94781e-05
2.08952e-05
2.82354e-05
2.61731e-05
2.11004e-05
2.15489e-05
2.67439e-05
3.6844e-05
7.13792e-05
8.64389e-05
7.41647e-05
4.70918e-05
2.83545e-05
2.68667e-05
2.2447e-05
2.33978e-05
2.35757e-05
1.99234e-05
2.05159e-05
1.99617e-05
2.01051e-05
2.0095e-05
2.01966e-05
2.04346e-05
2.07375e-05
2.08061e-05
2.07262e-05
2.07152e-05
2.08943e-05
2.09956e-05
2.12148e-05
2.12946e-05
2.15432e-05
2.16489e-05
2.19229e-05
2.19902e-05
2.22826e-05
2.24359e-05
2.26448e-05
2.26128e-05
2.281e-05
2.29185e-05
2.32147e-05
2.33731e-05
2.34951e-05
2.36412e-05
2.38216e-05
2.38758e-05
2.39565e-05
2.40578e-05
2.41141e-05
2.41563e-05
2.42275e-05
2.4305e-05
2.43236e-05
2.43935e-05
2.44121e-05
2.44402e-05
2.44583e-05
2.44947e-05
2.4518e-05
2.45641e-05
2.45631e-05
2.46344e-05
2.47015e-05
2.47999e-05
2.49056e-05
2.49915e-05
2.50985e-05
2.52493e-05
2.53795e-05
2.55531e-05
2.57324e-05
2.59946e-05
2.61189e-05
2.63688e-05
2.65841e-05
2.68544e-05
2.71363e-05
2.74022e-05
2.77191e-05
2.80751e-05
2.8456e-05
2.88564e-05
2.92513e-05
2.97563e-05
3.02645e-05
3.07307e-05
3.12767e-05
3.19721e-05
3.27197e-05
3.34227e-05
3.42321e-05
3.51518e-05
3.61485e-05
3.72153e-05
3.8417e-05
3.97363e-05
4.11691e-05
4.25662e-05
4.42726e-05
4.61993e-05
4.81351e-05
4.97551e-05
5.13974e-05
5.27125e-05
5.41208e-05
5.54085e-05
5.35291e-05
5.57736e-05
5.3011e-05
5.48033e-05
5.16037e-05
5.3889e-05
5.00003e-05
5.20944e-05
4.86727e-05
5.06477e-05
4.81353e-05
4.95686e-05
4.74262e-05
4.86642e-05
4.72344e-05
4.84484e-05
4.7613e-05
4.87356e-05
4.79546e-05
4.91014e-05
4.88029e-05
5.00378e-05
5.00974e-05
5.14667e-05
5.15587e-05
5.28633e-05
5.31772e-05
5.4659e-05
5.52196e-05
5.67001e-05
5.74222e-05
5.90065e-05
5.988e-05
6.15133e-05
6.24254e-05
6.40256e-05
6.53901e-05
6.76331e-05
6.91195e-05
7.11957e-05
7.26423e-05
7.47503e-05
7.59454e-05
7.80431e-05
7.93655e-05
8.16044e-05
8.28111e-05
8.65209e-05
8.69011e-05
8.4882e-05
8.35672e-05
8.56104e-05
8.33235e-05
7.91398e-05
7.30626e-05
6.33986e-05
5.84334e-05
5.66605e-05
8.53766e-05
0.000194502
0.000275947
0.000444544
0.000496585
0.000529152
0.000440632
0.000354847
0.000304185
0.00030232
0.000300729
0.00021135
0.00015409
0.000218169
0.000152559
0.000185165
0.000139468
0.000157701
0.00012566
0.000124586
0.000113031
0.000111795
9.94471e-05
9.9201e-05
9.80439e-05
0.000101532
0.000104558
0.000108162
0.000107813
0.000106571
0.000102055
9.73947e-05
8.9968e-05
8.54803e-05
8.15305e-05
7.98924e-05
7.83989e-05
7.48814e-05
7.86371e-05
6.74461e-05
6.34027e-05
6.36477e-05
6.2145e-05
6.01105e-05
5.53558e-05
5.21389e-05
4.76904e-05
4.49092e-05
4.42062e-05
4.16767e-05
3.68186e-05
3.29326e-05
3.13196e-05
3.08668e-05
3.39105e-05
3.80704e-05
3.97227e-05
4.08925e-05
3.92259e-05
3.70954e-05
3.49915e-05
3.0339e-05
2.97036e-05
2.96863e-05
3.24958e-05
4.06267e-05
4.62566e-05
0.000105329
0.000408171
0.00188227
0.00597194
0.00866943
0.00682965
0.0026432
0.000357261
9.79939e-05
0.000110653
0.00012269
0.000129463
0.000123455
0.000112401
9.97019e-05
8.89593e-05
7.981e-05
7.32181e-05
6.64208e-05
5.82552e-05
5.15699e-05
4.97292e-05
4.88232e-05
4.49556e-05
4.1065e-05
3.94735e-05
3.90967e-05
3.76432e-05
3.55524e-05
3.37441e-05
3.23393e-05
3.08393e-05
2.94139e-05
2.78679e-05
2.63959e-05
2.48166e-05
2.33421e-05
2.19222e-05
2.05965e-05
1.93754e-05
1.8314e-05
1.74273e-05
1.67012e-05
1.61357e-05
1.56072e-05
1.52929e-05
1.48928e-05
1.50819e-05
1.49062e-05
1.8148e-05
2.11841e-05
1.88139e-05
1.68808e-05
1.67793e-05
1.65817e-05
1.70415e-05
1.67233e-05
1.72284e-05
1.68213e-05
1.72666e-05
1.67941e-05
1.71691e-05
1.67419e-05
1.71215e-05
1.65595e-05
1.7078e-05
1.66716e-05
1.70526e-05
1.66223e-05
1.70608e-05
1.6644e-05
1.71017e-05
1.66647e-05
1.71781e-05
1.67059e-05
1.7333e-05
1.69181e-05
1.7404e-05
1.68191e-05
1.74396e-05
1.71532e-05
1.77787e-05
1.8984e-05
1.85021e-05
2.41115e-05
1.90872e-05
2.74496e-05
2.51595e-05
3.33219e-05
2.99248e-05
6.82944e-05
0.000160067
0.000225709
0.000215079
0.000159857
6.59403e-05
3.17522e-05
2.27171e-05
2.22424e-05
2.78152e-05
2.82882e-05
2.06414e-05
3.01199e-05
2.58245e-05
3.42218e-05
3.31143e-05
4.12329e-05
5.454e-05
2.97964e-05
6.38928e-05
2.79731e-05
6.63332e-05
2.18539e-05
2.63569e-05
0.000100075
4.48788e-05
6.78057e-05
2.92459e-05
3.76761e-05
3.77399e-05
2.91588e-05
6.77475e-05
4.4968e-05
9.99232e-05
2.62545e-05
2.1839e-05
6.64978e-05
2.79678e-05
6.39298e-05
2.96759e-05
5.46418e-05
4.122e-05
3.32615e-05
3.41455e-05
2.57734e-05
2.98582e-05
2.09081e-05
2.7586e-05
2.57946e-05
2.0774e-05
2.19819e-05
2.63739e-05
3.72262e-05
5.97551e-05
5.89744e-05
5.54355e-05
3.89168e-05
2.48701e-05
2.278e-05
1.94636e-05
1.97062e-05
1.91351e-05
1.95421e-05
1.95514e-05
2.01727e-05
2.05048e-05
2.0478e-05
2.04863e-05
2.07878e-05
2.06131e-05
2.04824e-05
2.06607e-05
2.07545e-05
2.08504e-05
2.09012e-05
2.11595e-05
2.12328e-05
2.15102e-05
2.15883e-05
2.18744e-05
2.19511e-05
2.2228e-05
2.23479e-05
2.25709e-05
2.25882e-05
2.27827e-05
2.28892e-05
2.31399e-05
2.32983e-05
2.34288e-05
2.35728e-05
2.37377e-05
2.38063e-05
2.38919e-05
2.39917e-05
2.40653e-05
2.41094e-05
2.41874e-05
2.42555e-05
2.42871e-05
2.43508e-05
2.43858e-05
2.4404e-05
2.44376e-05
2.44656e-05
2.45025e-05
2.45359e-05
2.45563e-05
2.46145e-05
2.46938e-05
2.47921e-05
2.49082e-05
2.49714e-05
2.5095e-05
2.52343e-05
2.53673e-05
2.55408e-05
2.57217e-05
2.59653e-05
2.61113e-05
2.63583e-05
2.6579e-05
2.68474e-05
2.71378e-05
2.74032e-05
2.77215e-05
2.80814e-05
2.84579e-05
2.88523e-05
2.92505e-05
2.97501e-05
3.02578e-05
3.07309e-05
3.12873e-05
3.19782e-05
3.27209e-05
3.34174e-05
3.42312e-05
3.51446e-05
3.61421e-05
3.72107e-05
3.84096e-05
3.97218e-05
4.11854e-05
4.2535e-05
4.42523e-05
4.61765e-05
4.81162e-05
4.97268e-05
5.13674e-05
5.27466e-05
5.40024e-05
5.54082e-05
5.3546e-05
5.5789e-05
5.30193e-05
5.48124e-05
5.15744e-05
5.38863e-05
4.99629e-05
5.20581e-05
4.86361e-05
5.06056e-05
4.80947e-05
4.95086e-05
4.73837e-05
4.85991e-05
4.71727e-05
4.83824e-05
4.75549e-05
4.8644e-05
4.78987e-05
4.9006e-05
4.87427e-05
4.99456e-05
5.00278e-05
5.13531e-05
5.14842e-05
5.27469e-05
5.31058e-05
5.45284e-05
5.51113e-05
5.65324e-05
5.72727e-05
5.87749e-05
5.96826e-05
6.12199e-05
6.21785e-05
6.37285e-05
6.50977e-05
6.7132e-05
6.85577e-05
7.04993e-05
7.18691e-05
7.37248e-05
7.48211e-05
7.68339e-05
7.84078e-05
8.06457e-05
8.0534e-05
7.98832e-05
7.93702e-05
8.40141e-05
8.20255e-05
7.82313e-05
7.33052e-05
7.261e-05
6.32749e-05
6.12899e-05
5.40349e-05
6.0563e-05
7.04752e-05
0.000139509
0.000229363
0.000309652
0.000380489
0.000422785
0.000380017
0.000319931
0.000293467
0.000297002
0.000279111
0.000195647
0.000150711
0.000223191
0.000154548
0.000186937
0.000137807
0.000155508
0.000126844
0.000124201
0.000111334
0.000111001
9.90161e-05
9.98929e-05
9.7789e-05
0.000101423
0.000104404
0.000108033
0.000107484
0.000106462
0.000101878
9.67997e-05
8.96184e-05
8.5265e-05
8.13169e-05
7.9801e-05
7.83272e-05
7.48301e-05
7.88054e-05
6.70538e-05
6.33902e-05
6.37178e-05
6.22141e-05
6.00095e-05
5.52494e-05
5.21016e-05
4.77648e-05
4.49359e-05
4.41562e-05
4.16425e-05
3.69392e-05
3.28666e-05
3.13477e-05
3.09881e-05
3.38705e-05
3.80541e-05
3.97261e-05
4.08415e-05
3.91445e-05
3.70121e-05
3.49007e-05
3.02734e-05
2.95796e-05
2.9691e-05
3.24238e-05
4.06377e-05
4.63043e-05
0.000102485
0.000399157
0.00187462
0.00601809
0.00875166
0.00689348
0.00266465
0.000358564
9.75756e-05
0.0001099
0.00012187
0.000128807
0.000122731
0.000111864
9.91669e-05
8.85572e-05
7.94564e-05
7.2847e-05
6.60733e-05
5.80411e-05
5.16727e-05
4.96601e-05
4.86597e-05
4.49073e-05
4.10703e-05
3.94354e-05
3.8967e-05
3.74979e-05
3.54765e-05
3.37118e-05
3.232e-05
3.08479e-05
2.94361e-05
2.78878e-05
2.64013e-05
2.48215e-05
2.33464e-05
2.19461e-05
2.06291e-05
1.94143e-05
1.83496e-05
1.7472e-05
1.67435e-05
1.61959e-05
1.56697e-05
1.53924e-05
1.49679e-05
1.51153e-05
1.49244e-05
1.77863e-05
2.00785e-05
1.80353e-05
1.7266e-05
1.70376e-05
1.66333e-05
1.71372e-05
1.67542e-05
1.72342e-05
1.68008e-05
1.72928e-05
1.68382e-05
1.71604e-05
1.66482e-05
1.71527e-05
1.67489e-05
1.70841e-05
1.65916e-05
1.7047e-05
1.66155e-05
1.71497e-05
1.66675e-05
1.71952e-05
1.67018e-05
1.72064e-05
1.66559e-05
1.72444e-05
1.66448e-05
1.73797e-05
1.69126e-05
1.76423e-05
1.76895e-05
1.80692e-05
1.85989e-05
1.8439e-05
1.89126e-05
1.76169e-05
1.98472e-05
1.82679e-05
2.31368e-05
2.25362e-05
5.36616e-05
0.000153715
0.000216765
0.00023196
0.000148453
6.3032e-05
3.13575e-05
2.23089e-05
2.15017e-05
2.75169e-05
2.89704e-05
2.06141e-05
2.95274e-05
2.54626e-05
3.46374e-05
3.28982e-05
4.16769e-05
5.47673e-05
2.94806e-05
6.55523e-05
2.84981e-05
6.74624e-05
2.0842e-05
2.68333e-05
9.94782e-05
4.59611e-05
6.78338e-05
2.87024e-05
3.81182e-05
3.8123e-05
2.87593e-05
6.7847e-05
4.58198e-05
9.93942e-05
2.66444e-05
2.0839e-05
6.72476e-05
2.87195e-05
6.59978e-05
2.94641e-05
5.4646e-05
4.16468e-05
3.28949e-05
3.4614e-05
2.56214e-05
2.94748e-05
2.10022e-05
2.79507e-05
2.57074e-05
2.09672e-05
2.13347e-05
2.5693e-05
3.33332e-05
5.6724e-05
5.92947e-05
4.938e-05
3.29585e-05
2.21597e-05
2.27321e-05
2.04556e-05
2.12588e-05
2.03778e-05
2.00331e-05
2.00999e-05
1.98736e-05
1.99795e-05
1.99996e-05
2.00494e-05
2.01721e-05
2.03371e-05
2.05235e-05
2.06878e-05
2.07069e-05
2.08185e-05
2.08941e-05
2.11284e-05
2.1218e-05
2.14734e-05
2.15723e-05
2.18468e-05
2.192e-05
2.21903e-05
2.23064e-05
2.25248e-05
2.25348e-05
2.27434e-05
2.28396e-05
2.30931e-05
2.32324e-05
2.33772e-05
2.35125e-05
2.36804e-05
2.37478e-05
2.38454e-05
2.3952e-05
2.40234e-05
2.40783e-05
2.41476e-05
2.42257e-05
2.42444e-05
2.43246e-05
2.43417e-05
2.4378e-05
2.43948e-05
2.4448e-05
2.44601e-05
2.45229e-05
2.45241e-05
2.46054e-05
2.46706e-05
2.47727e-05
2.48689e-05
2.49716e-05
2.50773e-05
2.52341e-05
2.53571e-05
2.554e-05
2.57198e-05
2.59847e-05
2.60991e-05
2.63582e-05
2.65747e-05
2.68439e-05
2.71176e-05
2.73912e-05
2.77116e-05
2.80673e-05
2.84463e-05
2.88507e-05
2.92535e-05
2.97562e-05
3.02575e-05
3.07379e-05
3.12966e-05
3.19826e-05
3.27107e-05
3.34244e-05
3.42409e-05
3.51584e-05
3.61553e-05
3.72206e-05
3.84187e-05
3.97402e-05
4.1156e-05
4.25622e-05
4.42582e-05
4.61841e-05
4.81074e-05
4.97223e-05
5.13538e-05
5.26244e-05
5.41124e-05
5.53354e-05
5.34377e-05
5.57008e-05
5.29298e-05
5.47436e-05
5.15447e-05
5.38248e-05
4.99547e-05
5.20475e-05
4.86379e-05
5.06066e-05
4.80898e-05
4.95284e-05
4.73886e-05
4.86272e-05
4.71969e-05
4.84037e-05
4.75578e-05
4.86789e-05
4.7895e-05
4.90412e-05
4.87254e-05
4.99554e-05
4.99914e-05
5.13432e-05
5.14195e-05
5.27203e-05
5.30122e-05
5.44686e-05
5.49998e-05
5.64569e-05
5.71452e-05
5.86959e-05
5.95237e-05
6.11093e-05
6.1986e-05
6.35576e-05
6.4823e-05
6.6917e-05
6.82573e-05
7.01962e-05
7.14763e-05
7.34118e-05
7.44339e-05
7.63012e-05
7.72933e-05
7.92116e-05
7.9914e-05
8.2322e-05
8.2101e-05
8.07226e-05
7.89795e-05
7.89561e-05
7.61994e-05
7.03211e-05
6.59658e-05
5.4896e-05
5.59478e-05
5.68668e-05
7.3629e-05
0.000159919
0.000195523
0.000329715
0.00036414
0.000415553
0.000365633
0.000318884
0.000277288
0.000274041
0.000271473
0.000200293
0.000148539
0.000208614
0.000148134
0.000181943
0.000137866
0.000156852
0.000123394
0.000124066
0.000112068
0.000111194
9.92038e-05
9.90471e-05
9.81802e-05
0.000101477
0.000104002
0.000107592
0.000107239
0.000105977
0.000101475
9.69613e-05
8.95967e-05
8.52237e-05
8.13329e-05
7.9641e-05
7.816e-05
7.45967e-05
7.80993e-05
6.71623e-05
6.31989e-05
6.34314e-05
6.19835e-05
6.00213e-05
5.52883e-05
5.20373e-05
4.75912e-05
4.488e-05
4.41641e-05
4.15751e-05
3.66614e-05
3.28537e-05
3.12456e-05
3.07488e-05
3.38975e-05
3.80202e-05
3.96657e-05
4.08179e-05
3.91327e-05
3.69977e-05
3.48776e-05
3.02176e-05
2.96262e-05
2.95614e-05
3.23554e-05
4.03791e-05
4.57352e-05
0.000100248
0.000385967
0.00184388
0.00605286
0.00890239
0.00705092
0.0027348
0.000371452
0.000101679
0.000110713
0.000121849
0.00012877
0.00012282
0.000111504
9.88793e-05
8.82706e-05
7.9281e-05
7.2687e-05
6.59379e-05
5.81666e-05
5.15459e-05
4.95332e-05
4.84601e-05
4.47186e-05
4.1056e-05
3.94372e-05
3.89496e-05
3.75124e-05
3.54939e-05
3.37041e-05
3.22757e-05
3.07521e-05
2.93279e-05
2.77989e-05
2.63559e-05
2.48074e-05
2.33662e-05
2.19659e-05
2.06793e-05
1.94863e-05
1.84428e-05
1.75301e-05
1.67726e-05
1.61703e-05
1.56323e-05
1.5339e-05
1.49799e-05
1.52312e-05
1.51979e-05
1.79905e-05
2.04724e-05
1.85582e-05
1.70154e-05
1.68644e-05
1.66001e-05
1.70391e-05
1.67254e-05
1.72312e-05
1.68206e-05
1.72462e-05
1.67996e-05
1.72246e-05
1.67047e-05
1.70738e-05
1.65081e-05
1.71036e-05
1.67392e-05
1.71106e-05
1.66388e-05
1.70952e-05
1.66757e-05
1.71581e-05
1.67061e-05
1.71647e-05
1.66845e-05
1.72541e-05
1.67284e-05
1.75397e-05
1.71629e-05
1.77865e-05
1.76245e-05
1.8017e-05
1.91605e-05
1.8444e-05
1.99432e-05
1.80938e-05
1.91217e-05
1.81235e-05
2.1727e-05
2.223e-05
4.42128e-05
0.000141965
0.000196758
0.00020063
0.000154037
7.13761e-05
3.36608e-05
2.29246e-05
2.24836e-05
2.91932e-05
2.85413e-05
2.05599e-05
3.0231e-05
2.58162e-05
3.42179e-05
3.30635e-05
4.12474e-05
5.45006e-05
2.98617e-05
6.38514e-05
2.7983e-05
6.63249e-05
2.18548e-05
2.63912e-05
0.000100145
4.48482e-05
6.782e-05
2.92817e-05
3.76512e-05
3.77492e-05
2.91195e-05
6.7736e-05
4.50041e-05
9.98709e-05
2.62188e-05
2.18383e-05
6.6545e-05
2.80141e-05
6.39872e-05
2.96576e-05
5.46802e-05
4.12313e-05
3.33039e-05
3.41339e-05
2.57766e-05
2.97979e-05
2.10211e-05
2.74002e-05
2.53484e-05
2.06155e-05
2.13608e-05
2.49027e-05
3.43904e-05
4.94796e-05
4.54875e-05
3.76257e-05
2.77717e-05
2.11126e-05
2.12017e-05
1.894e-05
1.93846e-05
1.90897e-05
1.93882e-05
1.9263e-05
1.96059e-05
1.96215e-05
2.00126e-05
2.00858e-05
2.03789e-05
2.0708e-05
2.08557e-05
2.06888e-05
2.0583e-05
2.08068e-05
2.09032e-05
2.11394e-05
2.11858e-05
2.14757e-05
2.15387e-05
2.18381e-05
2.1901e-05
2.2167e-05
2.22598e-05
2.24785e-05
2.25211e-05
2.27094e-05
2.2808e-05
2.30239e-05
2.3169e-05
2.33076e-05
2.34467e-05
2.35978e-05
2.36847e-05
2.37853e-05
2.38942e-05
2.39781e-05
2.403e-05
2.41104e-05
2.41771e-05
2.42198e-05
2.42858e-05
2.43289e-05
2.43401e-05
2.43919e-05
2.44158e-05
2.44634e-05
2.4494e-05
2.45335e-05
2.45852e-05
2.46775e-05
2.47762e-05
2.48932e-05
2.49441e-05
2.50852e-05
2.52123e-05
2.53472e-05
2.5526e-05
2.57075e-05
2.59354e-05
2.6098e-05
2.63459e-05
2.65722e-05
2.68379e-05
2.71326e-05
2.74016e-05
2.77234e-05
2.80849e-05
2.84557e-05
2.88487e-05
2.92548e-05
2.97487e-05
3.0254e-05
3.07396e-05
3.13098e-05
3.19931e-05
3.27226e-05
3.34203e-05
3.42399e-05
3.51464e-05
3.61461e-05
3.72151e-05
3.841e-05
3.97184e-05
4.11908e-05
4.25081e-05
4.42294e-05
4.61532e-05
4.80918e-05
4.96924e-05
5.13254e-05
5.27117e-05
5.39378e-05
5.53516e-05
5.34933e-05
5.57539e-05
5.29613e-05
5.47812e-05
5.15189e-05
5.38348e-05
4.99143e-05
5.20074e-05
4.85921e-05
5.0555e-05
4.80429e-05
4.94507e-05
4.73348e-05
4.85466e-05
4.7121e-05
4.83249e-05
4.74876e-05
4.85677e-05
4.78313e-05
4.89294e-05
4.86579e-05
4.98485e-05
4.99157e-05
5.1219e-05
5.13391e-05
5.2591e-05
5.29292e-05
5.43227e-05
5.48781e-05
5.62742e-05
5.69818e-05
5.84418e-05
5.93062e-05
6.07908e-05
6.17164e-05
6.3218e-05
6.44827e-05
6.63691e-05
6.76667e-05
6.9459e-05
7.06584e-05
7.23419e-05
7.32761e-05
7.49908e-05
7.60377e-05
7.76459e-05
7.72871e-05
7.70655e-05
7.59872e-05
7.83066e-05
7.55935e-05
7.29545e-05
6.7679e-05
6.6291e-05
5.81407e-05
5.70527e-05
5.3001e-05
5.50225e-05
7.2612e-05
0.000121554
0.000176309
0.000232152
0.000291035
0.000331967
0.000315839
0.000284267
0.000263369
0.000265787
0.000251927
0.00018626
0.000144566
0.000211696
0.000150503
0.000185187
0.000136986
0.000153131
0.000124321
0.000124933
0.000112158
0.000111454
9.92209e-05
0.00010015
9.74795e-05
0.000101396
0.000104266
0.000107589
0.000106959
0.000106108
0.00010147
9.64673e-05
8.94788e-05
8.51343e-05
8.10229e-05
7.95871e-05
7.8064e-05
7.46287e-05
7.83296e-05
6.66016e-05
6.32702e-05
6.35738e-05
6.2075e-05
5.9826e-05
5.51018e-05
5.19924e-05
4.7739e-05
4.49428e-05
4.40863e-05
4.15147e-05
3.68751e-05
3.27404e-05
3.12962e-05
3.0977e-05
3.38187e-05
3.80135e-05
3.96973e-05
4.08026e-05
3.90887e-05
3.69648e-05
3.48609e-05
3.02126e-05
2.95241e-05
2.96769e-05
3.23563e-05
4.0444e-05
4.58016e-05
9.61107e-05
0.000368213
0.00182172
0.00612364
0.00907047
0.0072108
0.00280075
0.000380536
0.000103718
0.000110186
0.000121071
0.000128441
0.000122238
0.000111196
9.83763e-05
8.78938e-05
7.89046e-05
7.22883e-05
6.55718e-05
5.78053e-05
5.17423e-05
4.94985e-05
4.8366e-05
4.47796e-05
4.10582e-05
3.93515e-05
3.87597e-05
3.72865e-05
3.53501e-05
3.36344e-05
3.22487e-05
3.07998e-05
2.94082e-05
2.78736e-05
2.63881e-05
2.48254e-05
2.33651e-05
2.19951e-05
2.07084e-05
1.9517e-05
1.84581e-05
1.75804e-05
1.68272e-05
1.627e-05
1.57163e-05
1.54411e-05
1.50436e-05
1.52662e-05
1.51868e-05
1.76031e-05
1.95363e-05
1.79502e-05
1.7324e-05
1.70572e-05
1.66606e-05
1.71448e-05
1.67646e-05
1.72046e-05
1.67769e-05
1.73188e-05
1.68501e-05
1.71634e-05
1.67459e-05
1.71861e-05
1.66767e-05
1.70504e-05
1.65708e-05
1.70652e-05
1.66468e-05
1.72386e-05
1.67397e-05
1.73878e-05
1.68519e-05
1.73816e-05
1.67613e-05
1.72979e-05
1.67807e-05
1.75406e-05
1.75157e-05
1.84552e-05
1.85636e-05
1.85261e-05
1.83104e-05
1.79768e-05
1.84762e-05
1.77661e-05
1.88314e-05
1.80833e-05
1.85422e-05
2.07309e-05
2.66739e-05
0.000100344
0.000166179
0.000194406
0.000131495
6.34139e-05
3.33155e-05
2.24983e-05
2.17103e-05
2.72561e-05
2.92414e-05
2.05093e-05
2.95411e-05
2.54334e-05
3.46684e-05
3.29052e-05
4.1668e-05
5.48325e-05
2.94674e-05
6.54839e-05
2.84503e-05
6.75096e-05
2.08527e-05
2.68764e-05
9.94803e-05
4.59974e-05
6.78368e-05
2.86879e-05
3.81225e-05
3.81377e-05
2.87795e-05
6.78444e-05
4.57837e-05
9.93756e-05
2.66021e-05
2.08346e-05
6.71803e-05
2.87451e-05
6.60841e-05
2.94426e-05
5.46133e-05
4.16356e-05
3.28932e-05
3.46225e-05
2.5654e-05
2.94807e-05
2.11154e-05
2.77076e-05
2.52827e-05
2.06751e-05
2.08578e-05
2.41549e-05
3.02903e-05
4.91395e-05
4.54717e-05
3.36142e-05
2.50403e-05
1.99072e-05
2.13614e-05
1.95927e-05
2.04616e-05
1.97816e-05
1.99671e-05
1.98499e-05
1.98932e-05
1.98949e-05
1.99708e-05
2.00533e-05
2.01133e-05
2.02353e-05
2.03628e-05
2.05602e-05
2.06525e-05
2.08177e-05
2.08763e-05
2.10954e-05
2.11767e-05
2.1437e-05
2.1524e-05
2.17929e-05
2.18606e-05
2.21165e-05
2.22039e-05
2.2424e-05
2.2453e-05
2.26588e-05
2.27419e-05
2.29668e-05
2.30917e-05
2.32524e-05
2.33771e-05
2.35407e-05
2.36268e-05
2.37404e-05
2.38474e-05
2.39244e-05
2.39853e-05
2.40568e-05
2.41392e-05
2.41637e-05
2.42541e-05
2.42626e-05
2.43104e-05
2.43295e-05
2.43973e-05
2.44002e-05
2.44832e-05
2.44826e-05
2.4577e-05
2.46425e-05
2.4744e-05
2.48285e-05
2.49522e-05
2.50561e-05
2.52168e-05
2.53346e-05
2.55306e-05
2.57067e-05
2.59744e-05
2.60802e-05
2.63483e-05
2.65653e-05
2.68322e-05
2.7099e-05
2.73824e-05
2.77056e-05
2.80591e-05
2.84361e-05
2.88474e-05
2.92585e-05
2.97571e-05
3.02529e-05
3.07484e-05
3.13192e-05
3.19951e-05
3.2704e-05
3.34296e-05
3.42515e-05
3.51663e-05
3.61652e-05
3.7228e-05
3.84224e-05
3.97477e-05
4.11445e-05
4.25548e-05
4.42438e-05
4.61721e-05
4.80844e-05
4.96943e-05
5.13125e-05
5.2536e-05
5.41021e-05
5.52748e-05
5.33497e-05
5.56396e-05
5.28538e-05
5.4693e-05
5.14838e-05
5.37619e-05
4.99056e-05
5.19979e-05
4.85971e-05
5.05579e-05
4.80368e-05
4.94786e-05
4.73431e-05
4.85785e-05
4.7149e-05
4.83459e-05
4.74931e-05
4.8609e-05
4.78276e-05
4.89657e-05
4.86406e-05
4.98586e-05
4.98756e-05
5.12068e-05
5.12734e-05
5.25641e-05
5.28373e-05
5.42641e-05
5.47672e-05
5.6195e-05
5.68468e-05
5.83603e-05
5.91413e-05
6.06809e-05
6.15243e-05
6.30663e-05
6.4231e-05
6.61837e-05
6.73911e-05
6.92097e-05
7.03173e-05
7.20832e-05
7.29188e-05
7.45729e-05
7.52556e-05
7.68539e-05
7.70869e-05
7.85859e-05
7.78237e-05
7.66627e-05
7.44261e-05
7.31358e-05
6.97686e-05
6.44948e-05
5.99633e-05
4.95141e-05
5.62993e-05
5.47812e-05
7.66539e-05
0.000135344
0.000153599
0.000257185
0.000278175
0.000330843
0.000303235
0.000282349
0.000250122
0.000246007
0.000241818
0.000188283
0.000142619
0.000196459
0.0001429
0.000177827
0.000133502
0.000152531
0.000121134
0.000125663
0.000110589
0.000111277
9.84202e-05
9.8898e-05
9.84008e-05
0.00010069
0.000103901
0.000106843
0.000106405
0.000105059
0.000101027
9.64873e-05
8.91534e-05
8.48013e-05
8.10092e-05
7.9425e-05
7.77474e-05
7.43427e-05
7.73813e-05
6.67707e-05
6.30734e-05
6.33368e-05
6.18297e-05
5.97007e-05
5.51261e-05
5.19382e-05
4.75372e-05
4.48986e-05
4.40996e-05
4.13771e-05
3.64719e-05
3.27496e-05
3.11329e-05
3.06603e-05
3.38835e-05
3.79665e-05
3.95968e-05
4.07717e-05
3.90996e-05
3.69695e-05
3.48478e-05
3.01662e-05
2.96304e-05
2.95441e-05