/*--------------------------------*- C++ -*----------------------------------*\
| =========                 |                                                 |
| \\      /  F ield         | OpenFOAM: The Open Source CFD Toolbox           |
|  \\    /   O peration     | Version:  v2006                                 |
|   \\  /    A nd           | Website:  www.openfoam.com                      |
|    \\/     M anipulation  |                                                 |
\*---------------------------------------------------------------------------*/
FoamFile
{
    version     2.0;
    format      ascii;
    class       volScalarField;
    location    "100";
    object      rho;
}
// * * * * * * * * * * * * * * * * * * * * * * * * * * * * * * * * * * * * * //

dimensions      [1 -3 0 0 0 0 0];


internalField   nonuniform List<scalar> 
93840
(
1.01016
1.00782
1.01724
1.00261
1.01596
1.00391
1.00123
1.00708
1.00477
1.00538
1.00905
1.01269
1.01247
1.0186
1.01699
1.02556
1.0286
1.0354
1.03663
1.03845
1.03177
1.0284
1.01874
1.01076
0.992565
0.990404
1.01018
0.998706
0.996735
1.00059
0.989537
1.00396
0.985925
0.994811
0.996408
1.00274
1.00198
1.00876
1.0073
1.0142
1.01205
1.01657
1.01553
1.02011
1.0199
1.02327
1.02308
1.02591
1.02644
1.0287
1.02917
1.03152
1.03177
1.03436
1.03447
1.0346
1.03572
1.0372
1.03813
1.03879
1.03999
1.04029
1.04128
1.04145
1.04122
1.04183
1.0417
1.04142
1.04168
1.04146
1.04083
1.04038
1.04008
1.0394
1.03868
1.03786
1.03689
1.03599
1.03476
1.03363
1.03225
1.031
1.02949
1.02766
1.02597
1.02405
1.02196
1.0199
1.01771
1.01549
1.01274
1.00983
1.00683
1.00367
1.00041
0.996845
0.993144
0.989336
0.985374
0.981156
0.976839
0.972512
0.96814
0.961194
0.954112
0.951222
0.948495
0.942678
0.93642
0.930191
0.92413
0.918125
0.912464
0.90573
0.899867
0.893995
0.889029
0.883037
0.878736
0.874195
0.871583
0.868093
0.868369
0.866903
0.870835
0.874478
0.874924
0.88444
0.886231
0.893414
0.898187
0.90458
0.910743
0.916443
0.922101
0.927766
0.933699
0.939577
0.944804
0.94925
0.954885
0.958675
0.965763
0.969164
0.975414
0.978163
0.984708
0.988241
0.994375
0.999209
1.00441
1.00934
1.01441
1.01968
1.02525
1.03085
1.03653
1.0429
1.04967
1.05622
1.06213
1.0675
1.07427
1.08055
1.08811
1.09572
1.10498
1.11264
1.12084
1.12875
1.13905
1.15047
1.16147
1.17126
1.18345
1.1969
1.21145
1.2288
1.24756
1.26245
1.27803
1.29176
1.28116
1.2596
1.18766
1.11477
1.0125
0.946749
0.900582
0.884535
0.819755
0.773708
0.739035
0.715969
0.680786
0.674455
0.65813
0.656822
0.640244
0.637451
0.634803
0.630889
0.62872
0.627213
0.624779
0.6208
0.618597
0.617143
0.615334
0.6136
0.611306
0.609184
0.606421
0.604936
0.603479
0.60242
0.600807
0.598631
0.597472
0.596204
0.589207
0.587581
0.58521
0.584757
0.584816
0.584528
0.583888
0.583596
0.583621
0.584098
0.581969
0.578914
0.57484
0.572296
0.568612
0.568386
0.567138
0.565848
0.564293
0.562968
0.56099
0.560056
0.558218
0.557321
0.555247
0.554198
0.550788
0.548089
0.550207
0.54854
0.541193
0.547292
0.561562
0.611816
0.69333
0.734797
0.749215
0.755932
0.764754
0.770911
0.776925
0.782183
0.787288
0.792848
0.798557
0.804637
0.810296
0.816696
0.824396
0.832302
0.837069
0.842079
0.848738
0.856366
0.861714
0.866484
0.871631
0.877624
0.882841
0.888043
0.892692
0.897546
0.901859
0.906376
0.910271
0.914579
0.917825
0.921848
0.924578
0.928487
0.930749
0.934501
0.936249
0.940002
0.941088
0.945144
0.945258
0.950271
0.95081
0.979003
0.973611
0.971785
0.973
0.974209
0.974688
0.972421
0.97128
0.970416
0.971151
0.971632
0.973025
0.973745
0.976336
0.974795
0.977639
0.977478
0.972869
0.975831
0.97384
0.974227
0.973027
0.972302
0.974014
0.979416
0.987518
0.988194
0.956372
0.95098
0.952655
0.945488
0.952309
0.940796
0.945744
0.944076
0.947095
0.952445
0.940818
0.950399
0.966248
0.969645
0.984132
1.01762
1.00343
0.995917
1.01037
1.01611
1.02849
1.03126
1.0384
1.03755
1.03334
1.02816
1.02584
1.01731
1.01542
1.01143
1.01203
1.00925
1.00557
1.0043
1.00704
1.00032
1.00316
1.01608
1.00258
1.01714
1.00787
1.01017
1.01014
1.0077
1.01729
1.00259
1.01616
1.00326
1.0005
1.00713
1.00436
1.00563
1.00916
1.01225
1.01134
1.01553
1.01709
1.02643
1.02812
1.03395
1.03734
1.03839
1.03245
1.03205
1.02197
1.01332
0.997184
0.998199
1.00089
0.992432
0.988716
0.994208
0.98204
0.993956
0.99019
0.997188
0.997551
1.00185
1.00286
1.00686
1.00789
1.01169
1.01212
1.01443
1.01541
1.01837
1.01925
1.02159
1.02205
1.02415
1.02556
1.02696
1.0278
1.02953
1.03037
1.03214
1.0329
1.03288
1.0343
1.03541
1.03615
1.03686
1.03793
1.03851
1.0393
1.0394
1.03944
1.03993
1.0398
1.03972
1.03985
1.03978
1.0392
1.03877
1.03848
1.03788
1.03729
1.03649
1.03561
1.0348
1.03365
1.03265
1.0313
1.03018
1.02876
1.02705
1.02551
1.02367
1.02175
1.0198
1.01773
1.01568
1.0131
1.01042
1.00761
1.00466
1.00165
0.998315
0.994891
0.991347
0.987662
0.983784
0.979785
0.975788
0.971788
0.965469
0.958954
0.956194
0.953678
0.94847
0.942826
0.937193
0.931705
0.926285
0.921212
0.915169
0.909949
0.904696
0.900285
0.89498
0.891215
0.887196
0.884921
0.881918
0.882323
0.88115
0.884981
0.888581
0.889058
0.898138
0.90011
0.907066
0.911648
0.917743
0.923732
0.929317
0.93481
0.940383
0.946019
0.95177
0.956849
0.961285
0.966935
0.970614
0.977436
0.980657
0.986803
0.989398
0.995911
0.999377
1.00544
1.00991
1.01457
1.01947
1.02407
1.02947
1.03479
1.03996
1.04515
1.05098
1.05717
1.06299
1.06835
1.07345
1.07973
1.08576
1.09257
1.09928
1.10715
1.11422
1.12203
1.12982
1.13942
1.14909
1.15961
1.17023
1.18228
1.1949
1.20909
1.22345
1.23748
1.25165
1.25882
1.2767
1.26181
1.2466
1.20485
1.15221
1.0784
1.01327
0.959528
0.928095
0.868016
0.825376
0.792022
0.764429
0.725339
0.716123
0.698521
0.696826
0.678964
0.675799
0.67215
0.669577
0.665458
0.662226
0.660898
0.657656
0.653868
0.650869
0.649202
0.64699
0.643673
0.641171
0.638343
0.636381
0.633785
0.632471
0.630658
0.628516
0.626436
0.624696
0.617466
0.615707
0.612422
0.611681
0.61135
0.610741
0.609653
0.609021
0.608476
0.60877
0.60614
0.602956
0.598411
0.595686
0.591622
0.591092
0.589453
0.588329
0.58606
0.58454
0.582226
0.581461
0.579556
0.578287
0.575345
0.574332
0.570779
0.568356
0.569677
0.568465
0.56027
0.567692
0.580121
0.62568
0.704575
0.741274
0.753626
0.760132
0.768679
0.77461
0.780397
0.785483
0.790431
0.795822
0.801335
0.807196
0.812659
0.81883
0.826064
0.833473
0.83807
0.843019
0.849362
0.856519
0.861578
0.866184
0.871078
0.876712
0.881609
0.88654
0.890932
0.895544
0.899628
0.903927
0.907626
0.911726
0.914821
0.918652
0.921258
0.924962
0.927068
0.930544
0.932005
0.935401
0.936056
0.939849
0.938983
0.943939
0.94082
0.950438
0.95484
0.956826
0.957462
0.958266
0.961679
0.961049
0.957691
0.955354
0.953591
0.950853
0.949645
0.949012
0.950316
0.94946
0.9507
0.949609
0.948449
0.949955
0.950479
0.950555
0.951958
0.954171
0.957471
0.959564
0.958941
0.952114
0.944191
0.945928
0.943722
0.943837
0.94464
0.943453
0.94489
0.939118
0.943872
0.941676
0.947913
0.940766
0.95374
0.9432
0.96809
0.992549
0.983927
0.990441
1.01126
1.01091
1.02389
1.0306
1.03849
1.03696
1.03539
1.02849
1.02545
1.0164
1.01826
1.0125
1.01245
1.00899
1.00529
1.00438
1.00707
1.00131
1.00378
1.016
1.0026
1.01736
1.00765
1.01015
1.0102
1.00776
1.01735
1.0026
1.01622
1.00413
1.00083
1.00716
1.00452
1.00551
1.00901
1.01252
1.01239
1.01834
1.01699
1.02498
1.02892
1.03492
1.03629
1.03823
1.03272
1.03231
1.02707
1.01819
0.999035
1.00119
1.0044
0.998556
0.990972
1.00032
0.993717
0.999853
0.990007
1.00309
0.996652
1.00535
1.00225
1.00888
1.0082
1.01273
1.0125
1.01547
1.01562
1.01888
1.01927
1.02205
1.02195
1.02447
1.02564
1.02697
1.02817
1.02972
1.03044
1.03198
1.03298
1.03293
1.03454
1.03513
1.0364
1.03703
1.03788
1.03871
1.03923
1.03955
1.03947
1.04007
1.04001
1.03996
1.04007
1.04003
1.03951
1.03912
1.03897
1.03833
1.03787
1.03705
1.03633
1.03553
1.03445
1.03355
1.03226
1.03123
1.02989
1.02827
1.02686
1.02509
1.02332
1.02145
1.01952
1.01761
1.01516
1.01268
1.01001
1.00726
1.00446
1.00131
0.998145
0.994817
0.991381
0.987783
0.984038
0.980354
0.976636
0.970682
0.964591
0.962124
0.959925
0.955122
0.94991
0.944734
0.939665
0.934684
0.930011
0.924415
0.919582
0.914716
0.910616
0.905632
0.902108
0.898272
0.896091
0.893122
0.893559
0.892364
0.896074
0.899601
0.899901
0.908851
0.910649
0.917427
0.921854
0.927896
0.933619
0.939134
0.944563
0.949811
0.955352
0.960873
0.965743
0.970025
0.975353
0.978832
0.985211
0.98853
0.994236
0.996792
1.00298
1.00654
1.01183
1.01625
1.02094
1.02521
1.02967
1.03449
1.0399
1.04476
1.04958
1.0546
1.06052
1.06668
1.07203
1.07671
1.08316
1.08862
1.09573
1.10211
1.1101
1.11761
1.12529
1.13323
1.14264
1.15315
1.16404
1.17442
1.18602
1.19919
1.21331
1.22945
1.24618
1.26055
1.27162
1.28405
1.27212
1.25727
1.21398
1.16076
1.08134
1.01918
0.962824
0.935551
0.877975
0.834577
0.796507
0.770213
0.733754
0.724353
0.706864
0.703482
0.688214
0.685145
0.682011
0.6788
0.678688
0.677505
0.67523
0.671419
0.670984
0.670145
0.668744
0.666521
0.664754
0.662615
0.659567
0.658069
0.65667
0.655122
0.652785
0.650688
0.649641
0.647651
0.640133
0.637588
0.634655
0.634203
0.633698
0.633067
0.631803
0.630997
0.630445
0.630428
0.627901
0.624112
0.619383
0.616303
0.611809
0.611422
0.609554
0.607738
0.605769
0.604251
0.601697
0.600279
0.597477
0.596683
0.594391
0.593085
0.588811
0.585946
0.587216
0.585863
0.576893
0.585229
0.595098
0.638087
0.715908
0.753827
0.763761
0.768811
0.776394
0.781728
0.786997
0.791663
0.796246
0.801304
0.806511
0.81209
0.817288
0.823152
0.830015
0.837069
0.841439
0.846172
0.852223
0.859097
0.863943
0.868348
0.872989
0.878331
0.882964
0.887633
0.891794
0.896168
0.900056
0.90414
0.907672
0.911565
0.914531
0.918154
0.920662
0.924132
0.926163
0.929325
0.930735
0.933692
0.93436
0.93752
0.937073
0.940571
0.939306
0.941932
0.945004
0.947612
0.949849
0.95191
0.954487
0.956582
0.956107
0.954663
0.953225
0.950946
0.949624
0.94798
0.94699
0.946668
0.946968
0.946738
0.946928
0.946634
0.947022
0.94742
0.947994
0.948447
0.948823
0.948524
0.947868
0.944715
0.944006
0.94453
0.944062
0.943861
0.944889
0.944446
0.944883
0.941035
0.944557
0.945652
0.946531
0.938765
0.949764
0.941148
0.962054
0.984126
0.969422
0.984335
1.01238
1.00805
1.02189
1.02878
1.03795
1.03733
1.03479
1.0287
1.0257
1.01758
1.01507
1.01158
1.01202
1.00932
1.00553
1.00446
1.00706
1.00045
1.00305
1.01591
1.00256
1.01736
1.00772
1.01019
1.01013
1.00779
1.01706
1.00255
1.01631
1.00329
1.00056
1.00719
1.00405
1.00566
1.00919
1.01232
1.01174
1.01552
1.01757
1.0263
1.02786
1.03361
1.03729
1.03827
1.03296
1.03375
1.02787
1.02097
1.00103
1.00502
1.00594
1.0006
0.995467
0.997106
0.994487
0.997827
0.996332
1.00103
1.00064
1.00461
1.00463
1.00898
1.00893
1.01318
1.01282
1.01564
1.0164
1.01942
1.0197
1.02249
1.02249
1.02491
1.02617
1.0278
1.02844
1.03012
1.03056
1.03239
1.03367
1.03369
1.035
1.0359
1.03676
1.03756
1.03833
1.03934
1.03984
1.04001
1.04022
1.04074
1.04069
1.04072
1.04084
1.04096
1.04043
1.04004
1.03988
1.03929
1.03894
1.03814
1.03746
1.03672
1.03573
1.03489
1.03363
1.0327
1.03138
1.02988
1.02855
1.02684
1.02521
1.0234
1.02158
1.01979
1.01746
1.01515
1.01259
1.01001
1.00738
1.00438
1.00142
0.998257
0.995019
0.991648
0.988114
0.984665
0.981157
0.975555
0.96982
0.967523
0.965482
0.961032
0.95618
0.951335
0.946549
0.941863
0.937447
0.932117
0.927545
0.922866
0.918879
0.914095
0.910599
0.90685
0.904514
0.90169
0.901836
0.900695
0.904271
0.907571
0.907727
0.916528
0.918203
0.924944
0.929051
0.934791
0.9405
0.945809
0.950977
0.95627
0.961529
0.966879
0.971571
0.975653
0.980941
0.98426
0.99058
0.99342
0.998966
1.00095
1.00691
1.00962
1.01492
1.01876
1.02319
1.02778
1.03098
1.03577
1.04059
1.04531
1.05003
1.05524
1.06099
1.067
1.07226
1.07695
1.08269
1.0886
1.0953
1.10262
1.11032
1.11788
1.12589
1.13417
1.1441
1.15385
1.16469
1.17575
1.18825
1.20093
1.21482
1.22832
1.24429
1.2545
1.26594
1.2772
1.2696
1.26127
1.22081
1.17403
1.10987
1.05053
0.994603
0.956792
0.900605
0.859154
0.820982
0.791079
0.750898
0.738126
0.717402
0.71402
0.697192
0.693667
0.688547
0.685466
0.684209
0.682435
0.682979
0.678279
0.677399
0.676766
0.676012
0.675305
0.674852
0.674102
0.672453
0.671028
0.669833
0.669504
0.668196
0.667047
0.665494
0.663845
0.6568
0.655301
0.651377
0.650783
0.650352
0.64973
0.648729
0.647943
0.647247
0.647503
0.644623
0.641158
0.636008
0.632699
0.628227
0.627426
0.625319
0.623792
0.621164
0.619431
0.616911
0.615495
0.613414
0.61148
0.608248
0.606666
0.603487
0.59966
0.601354
0.599172
0.591603
0.597355
0.607988
0.651057
0.72939
0.766554
0.774267
0.778323
0.784976
0.789542
0.794191
0.798371
0.802547
0.807232
0.812104
0.817378
0.822318
0.827911
0.83438
0.841063
0.84526
0.849861
0.855668
0.862212
0.866866
0.871141
0.875593
0.880668
0.885063
0.889517
0.89349
0.897661
0.901377
0.905269
0.908655
0.912352
0.915204
0.918629
0.921052
0.924289
0.926288
0.929163
0.930622
0.933144
0.933996
0.936369
0.936559
0.938533
0.938777
0.939125
0.940608
0.942518
0.94401
0.945973
0.948048
0.950746
0.952502
0.95309
0.952834
0.951363
0.950678
0.948818
0.948568
0.946903
0.946574
0.946117
0.946284
0.94591
0.946016
0.945935
0.946301
0.946401
0.94654
0.945715
0.945853
0.94444
0.944048
0.944122
0.944232
0.943375
0.944285
0.944467
0.945579
0.941926
0.944872
0.94275
0.945926
0.938999
0.949785
0.938204
0.96247
0.968946
0.946952
0.975248
1.00846
1.00594
1.01795
1.0283
1.03867
1.03702
1.03435
1.02838
1.02536
1.01634
1.01813
1.0122
1.01252
1.00904
1.00515
1.00453
1.00706
1.00116
1.00362
1.01615
1.00261
1.01725
1.0077
1.01013
1.01021
1.00785
1.01733
1.00262
1.01628
1.00423
1.00092
1.00727
1.00465
1.00563
1.00886
1.01261
1.01239
1.01817
1.01697
1.02524
1.02857
1.03454
1.03619
1.03807
1.03301
1.03373
1.03216
1.02396
1.00511
1.00435
1.00528
1.00459
0.997469
1.00241
0.999089
1.00323
0.998865
1.00537
1.00181
1.00808
1.00605
1.01135
1.01085
1.01496
1.01457
1.0174
1.01788
1.02042
1.02125
1.02357
1.02393
1.0261
1.02747
1.02869
1.02989
1.03129
1.0317
1.0335
1.03478
1.03483
1.03611
1.03714
1.03779
1.03886
1.03948
1.04054
1.04092
1.0412
1.04137
1.04192
1.04199
1.04205
1.04204
1.0422
1.04182
1.04142
1.04126
1.04072
1.04049
1.03964
1.03908
1.03835
1.03741
1.03664
1.03544
1.03455
1.03331
1.0319
1.03064
1.029
1.0275
1.02574
1.02404
1.02234
1.02012
1.01796
1.01552
1.01311
1.01062
1.00779
1.00502
1.002
0.998966
0.995773
0.992414
0.989182
0.985823
0.980498
0.975101
0.97299
0.971145
0.966898
0.962303
0.957697
0.953098
0.948607
0.944305
0.93915
0.93466
0.930065
0.926099
0.921298
0.917791
0.913909
0.91152
0.908432
0.908599
0.907287
0.910714
0.913814
0.913791
0.922383
0.923836
0.930491
0.934363
0.940149
0.94551
0.950791
0.955934
0.960765
0.965908
0.97099
0.975386
0.979246
0.984052
0.987065
0.992813
0.995696
1.00092
1.00285
1.00836
1.01141
1.01624
1.02046
1.02445
1.02838
1.03304
1.03726
1.04169
1.04628
1.05151
1.05685
1.06305
1.06808
1.07319
1.07848
1.08478
1.09048
1.09776
1.10407
1.1118
1.11913
1.12728
1.13546
1.14464
1.15533
1.16568
1.17643
1.18799
1.20116
1.21495
1.22889
1.24326
1.25688
1.26468
1.27369
1.26466
1.25374
1.21695
1.17552
1.10662
1.05097
0.994635
0.960365
0.90777
0.864785
0.824841
0.795265
0.758151
0.742865
0.722986
0.718397
0.701899
0.695831
0.692193
0.689357
0.686464
0.684124
0.683501
0.680931
0.679023
0.678663
0.678436
0.677651
0.674479
0.675458
0.674604
0.67403
0.672471
0.673473
0.672591
0.672279
0.671858
0.670983
0.665306
0.663884
0.661472
0.661843
0.661974
0.661882
0.661296
0.661052
0.66068
0.661047
0.65905
0.655209
0.6501
0.646782
0.642017
0.64104
0.639251
0.637445
0.635143
0.632897
0.630627
0.628905
0.626502
0.624652
0.622505
0.619814
0.616462
0.612471
0.614381
0.61117
0.604411
0.609064
0.619553
0.66257
0.742318
0.780458
0.787301
0.789736
0.795231
0.798957
0.80286
0.806417
0.810065
0.814283
0.818729
0.823634
0.828264
0.833501
0.839609
0.845939
0.849897
0.85425
0.859733
0.866019
0.870502
0.874614
0.878855
0.883674
0.887836
0.892045
0.895796
0.899741
0.903267
0.906953
0.910173
0.913674
0.916398
0.919625
0.921954
0.924976
0.926919
0.929517
0.931005
0.933136
0.934202
0.935939
0.936576
0.937639
0.938251
0.938027
0.938401
0.9395
0.940503
0.941754
0.942944
0.944982
0.946833
0.948944
0.950399
0.950336
0.950273
0.949179
0.949039
0.94818
0.948191
0.947358
0.946833
0.946458
0.946311
0.945604
0.945583
0.945866
0.945801
0.945431
0.945037
0.944596
0.945062
0.94454
0.943714
0.943512
0.94426
0.945023
0.945418
0.94283
0.944467
0.943226
0.944898
0.943823
0.949161
0.943406
0.958349
0.965878
0.947205
0.966631
1.0066
1.00321
1.01545
1.02612
1.0376
1.03744
1.03494
1.02882
1.02605
1.01779
1.01503
1.01174
1.01216
1.0093
1.0056
1.00439
1.00704
1.00048
1.00294
1.0158
1.0025
1.01731
1.00783
1.01014
1.0101
1.00765
1.01692
1.00253
1.0161
1.0035
1.00051
1.00731
1.00423
1.00565
1.00914
1.0124
1.01192
1.01563
1.01761
1.02584
1.02783
1.03406
1.0369
1.03806
1.03296
1.0342
1.03163
1.02846
1.01099
1.00863
1.01101
1.00461
1.00346
1.00211
1.00196
1.00332
1.00276
1.00541
1.00564
1.00861
1.0091
1.01243
1.01287
1.01574
1.01643
1.01814
1.01972
1.02197
1.02261
1.02479
1.02562
1.02698
1.02887
1.03008
1.03126
1.03246
1.03298
1.03465
1.03624
1.03637
1.03721
1.03869
1.03919
1.04004
1.04099
1.04174
1.0423
1.0426
1.04276
1.04335
1.04354
1.04351
1.04368
1.04388
1.04341
1.04308
1.04301
1.04242
1.04227
1.04144
1.04095
1.04026
1.03941
1.0387
1.03753
1.03673
1.03551
1.03421
1.03301
1.03146
1.03009
1.02836
1.02681
1.02521
1.02312
1.02111
1.01877
1.01654
1.01416
1.01148
1.00889
1.00599
1.00312
1.00011
0.996929
0.993887
0.990668
0.985617
0.980484
0.978501
0.976687
0.972655
0.968281
0.963832
0.95933
0.954936
0.950665
0.945528
0.941085
0.936429
0.932344
0.927524
0.923814
0.919882
0.917142
0.914154
0.913878
0.912527
0.915694
0.918585
0.918392
0.926765
0.92802
0.934494
0.937883
0.94327
0.94844
0.953423
0.95809
0.962924
0.967651
0.972497
0.976685
0.980302
0.985064
0.987979
0.993797
0.9964
1.00159
1.00356
1.00905
1.01162
1.0171
1.02082
1.02485
1.02935
1.03311
1.03817
1.04261
1.04733
1.05214
1.05781
1.06325
1.06875
1.07419
1.07965
1.08541
1.09196
1.09862
1.10562
1.11369
1.12087
1.12919
1.13731
1.14701
1.15663
1.16765
1.17783
1.19101
1.202
1.21629
1.22759
1.24082
1.25127
1.26009
1.27013
1.26102
1.25778
1.22456
1.18499
1.12855
1.07619
1.0228
0.981678
0.930254
0.887449
0.849117
0.817425
0.774068
0.758611
0.735923
0.728702
0.711966
0.705536
0.697974
0.693918
0.693271
0.689006
0.686654
0.684886
0.684116
0.682441
0.681646
0.681291
0.680701
0.678917
0.677147
0.677924
0.676875
0.67673
0.676613
0.675388
0.67574
0.675506
0.669461
0.668802
0.666226
0.667102
0.667864
0.66846
0.668746
0.669318
0.669676
0.670775
0.669199
0.666406
0.661455
0.65825
0.653955
0.653148
0.651092
0.649135
0.647126
0.645204
0.643166
0.640748
0.638874
0.636334
0.633984
0.631629
0.629343
0.623575
0.626084
0.622969
0.616004
0.620071
0.630388
0.673946
0.756198
0.795693
0.800972
0.802177
0.806765
0.809664
0.812824
0.815739
0.818835
0.822532
0.826509
0.830987
0.835245
0.840107
0.845724
0.851649
0.8554
0.859533
0.864724
0.870637
0.874898
0.878841
0.882861
0.887396
0.891298
0.895264
0.898806
0.902517
0.905845
0.909309
0.912359
0.915631
0.918215
0.921208
0.923422
0.926172
0.928081
0.930389
0.931953
0.933712
0.934919
0.936167
0.937006
0.937561
0.938201
0.937958
0.938019
0.938636
0.939
0.939671
0.940286
0.941116
0.942502
0.943651
0.945796
0.947076
0.948212
0.948082
0.948337
0.947855
0.948096
0.94764
0.947752
0.947397
0.947882
0.947046
0.946778
0.945235
0.945328
0.944934
0.9453
0.944497
0.944829
0.945437
0.945422
0.942576
0.944177
0.943927
0.944431
0.942291
0.945262
0.942186
0.945754
0.94244
0.946925
0.942515
0.955386
0.959092
0.941271
0.962891
0.998799
1.00059
1.01145
1.02474
1.03863
1.03691
1.03474
1.02816
1.02509
1.01571
1.01824
1.01201
1.01239
1.00894
1.00518
1.00439
1.00697
1.00108
1.0036
1.01604
1.00257
1.01727
1.00762
1.01014
1.0102
1.00774
1.01729
1.00259
1.01645
1.00434
1.00092
1.00734
1.00464
1.00566
1.00908
1.0127
1.0123
1.01819
1.01695
1.02555
1.02864
1.03488
1.03554
1.03793
1.03329
1.03459
1.03371
1.03066
1.01387
1.0099
1.01309
1.00962
1.00456
1.00917
1.00491
1.00906
1.00559
1.01034
1.00812
1.01258
1.01186
1.01525
1.01541
1.01859
1.01837
1.0214
1.02122
1.02411
1.02442
1.02707
1.02736
1.02914
1.03082
1.03199
1.03296
1.0343
1.03489
1.03647
1.03794
1.0381
1.03918
1.04047
1.04105
1.04189
1.04277
1.04344
1.04411
1.04445
1.04461
1.04522
1.0454
1.04547
1.04551
1.0458
1.04548
1.04508
1.04499
1.04453
1.04441
1.04354
1.04319
1.04251
1.0417
1.04105
1.03995
1.03919
1.03804
1.03686
1.0357
1.03425
1.03298
1.0313
1.02988
1.02835
1.02636
1.02449
1.02225
1.02019
1.01791
1.01539
1.01295
1.01016
1.00748
1.00456
1.00152
0.998615
0.995455
0.990634
0.985761
0.983845
0.982103
0.978102
0.973839
0.969433
0.964926
0.960519
0.956134
0.950972
0.946396
0.941631
0.937412
0.93238
0.928568
0.924297
0.921477
0.917975
0.917708
0.91598
0.919005
0.921361
0.921029
0.928882
0.929996
0.936215
0.939383
0.944677
0.94962
0.954513
0.959281
0.963674
0.968405
0.973168
0.977326
0.981005
0.985549
0.988395
0.994179
0.996716
1.002
1.00398
1.00984
1.01281
1.01745
1.02145
1.02578
1.0295
1.03419
1.03837
1.04348
1.04808
1.05349
1.058
1.0643
1.06963
1.0755
1.08018
1.087
1.09221
1.09992
1.10579
1.11449
1.12135
1.12987
1.1376
1.14802
1.15735
1.16856
1.17798
1.19085
1.20223
1.21584
1.2282
1.23999
1.25036
1.25704
1.26524
1.25631
1.24905
1.21497
1.18242
1.12279
1.07671
1.02116
0.98491
0.931682
0.892655
0.850106
0.820233
0.779412
0.763625
0.740634
0.731321
0.715552
0.708249
0.70083
0.695356
0.696659
0.69141
0.690322
0.684228
0.684606
0.684523
0.682856
0.681536
0.681503
0.680515
0.679599
0.676916
0.676684
0.676892
0.676753
0.676739
0.675999
0.675458
0.671041
0.669029
0.6673
0.6677
0.668085
0.668931
0.669793
0.67034
0.67126
0.672763
0.672705
0.670163
0.666144
0.663805
0.660456
0.659533
0.658799
0.657612
0.655954
0.653771
0.652619
0.650857
0.649472
0.646956
0.644693
0.641279
0.639329
0.634715
0.63669
0.633572
0.62688
0.630316
0.639407
0.683776
0.769807
0.8118
0.815643
0.815366
0.819239
0.821545
0.823992
0.826225
0.828723
0.831875
0.835331
0.839341
0.843224
0.847648
0.852845
0.858335
0.861783
0.86561
0.870375
0.875971
0.88002
0.883781
0.887575
0.891828
0.895469
0.899147
0.902416
0.905857
0.908952
0.912171
0.915015
0.918064
0.920483
0.923259
0.925348
0.927877
0.929669
0.931718
0.933205
0.9347
0.935931
0.936922
0.937723
0.938128
0.938526
0.938116
0.937944
0.938273
0.938435
0.938724
0.939068
0.939391
0.939925
0.940647
0.941722
0.942798
0.944347
0.945333
0.946243
0.946456
0.946789
0.946697
0.946717
0.94687
0.946948
0.947619
0.947401
0.946948
0.946944
0.946121
0.946173
0.94532
0.944697
0.943762
0.944675
0.943052
0.943597
0.943511
0.945103
0.944794
0.945297
0.943179
0.946371
0.943873
0.94735
0.943377
0.952846
0.958096
0.950111
0.962801
0.992456
0.994736
1.00834
1.02226
1.03664
1.03726
1.03521
1.0289
1.02566
1.01777
1.01556
1.01169
1.01211
1.00916
1.00562
1.00466
1.00704
1.00049
1.00296
1.01578
1.00249
1.01735
1.00783
1.01017
1.01017
1.00774
1.0169
1.0024
1.01595
1.00357
1.00054
1.00736
1.00418
1.00569
1.0092
1.01257
1.01184
1.01582
1.01772
1.02552
1.02741
1.03357
1.0369
1.03791
1.03331
1.03455
1.03279
1.0324
1.01974
1.0158
1.01506
1.01213
1.0092
1.01018
1.00826
1.01129
1.00841
1.01269
1.01082
1.015
1.01427
1.0178
1.01802
1.02021
1.02094
1.02299
1.02334
1.02672
1.02638
1.02906
1.0295
1.03131
1.0324
1.0339
1.0348
1.03618
1.03705
1.03839
1.03976
1.04003
1.04116
1.04231
1.04303
1.0439
1.04465
1.04544
1.046
1.04642
1.04664
1.04712
1.04753
1.04754
1.04781
1.04781
1.04764
1.04732
1.04725
1.04679
1.04678
1.04589
1.04558
1.04497
1.04424
1.04365
1.04259
1.04189
1.04079
1.03969
1.03858
1.03726
1.03607
1.03443
1.03317
1.03171
1.02986
1.02811
1.02597
1.02405
1.02184
1.01944
1.01711
1.0144
1.01184
1.00902
1.00611
1.00331
1.00021
0.995537
0.990764
0.988888
0.987005
0.983049
0.978834
0.974364
0.969764
0.965247
0.960723
0.955321
0.950626
0.945561
0.940913
0.935434
0.931408
0.926646
0.923566
0.91932
0.919398
0.916451
0.920855
0.921532
0.922809
0.928775
0.931437
0.936086
0.940634
0.944288
0.950786
0.954109
0.960384
0.963419
0.969585
0.97274
0.978503
0.980552
0.987011
0.988199
0.995749
0.996681
1.00335
1.0037
1.01097
1.01187
1.01895
1.0208
1.02707
1.02997
1.03524
1.03858
1.04482
1.04809
1.05435
1.05845
1.06538
1.06987
1.07704
1.08083
1.088
1.09267
1.10127
1.10664
1.11618
1.12255
1.13204
1.13893
1.15017
1.15795
1.17024
1.17915
1.19169
1.20209
1.21501
1.22606
1.23759
1.24742
1.25309
1.26096
1.25279
1.24726
1.22307
1.18922
1.1427
1.09529
1.04371
1.00401
0.955156
0.914212
0.874871
0.839939
0.799684
0.780009
0.753027
0.743003
0.72653
0.718922
0.708992
0.703601
0.699075
0.696713
0.696013
0.689964
0.690017
0.686894
0.687416
0.685751
0.684522
0.683288
0.683317
0.682293
0.680033
0.679097
0.679846
0.679537
0.679442
0.67893
0.672978
0.672181
0.669793
0.670253
0.670632
0.671495
0.67209
0.672844
0.673623
0.674957
0.675125
0.672988
0.669384
0.667122
0.663779
0.663504
0.663237
0.662214
0.661545
0.659908
0.659167
0.657473
0.656599
0.654454
0.653341
0.650843
0.64847
0.643577
0.645494
0.642969
0.635561
0.639122
0.647132
0.692688
0.783442
0.827884
0.830238
0.828737
0.832185
0.834009
0.835915
0.837592
0.839588
0.842242
0.845223
0.848763
0.852216
0.856207
0.86084
0.865892
0.869096
0.872633
0.877068
0.882226
0.88599
0.889519
0.893051
0.89699
0.900339
0.90374
0.906768
0.909933
0.912788
0.915742
0.91838
0.921155
0.923397
0.925897
0.927825
0.930041
0.931751
0.933525
0.935005
0.936226
0.937415
0.938147
0.938907
0.939092
0.939458
0.939003
0.93879
0.938956
0.938775
0.938823
0.938918
0.938835
0.939163
0.939245
0.939898
0.940211
0.941072
0.941713
0.943217
0.943768
0.94444
0.944812
0.945376
0.945384
0.945705
0.945478
0.946102
0.946417
0.9471
0.946534
0.946841
0.945235
0.946138
0.9456
0.945051
0.94459
0.945618
0.943037
0.944514
0.94416
0.945862
0.943266
0.946541
0.944277
0.947183
0.944306
0.951211
0.956023
0.948566
0.96356
0.982552
0.986725
1.00275
1.02049
1.0371
1.03513
1.03521
1.02811
1.02558
1.01583
1.01763
1.01175
1.01247
1.00878
1.00515
1.0042
1.00695
1.00119
1.00354
1.01598
1.0025
1.01734
1.00765
1.01002
1.01028
1.0077
1.01723
1.00264
1.01646
1.0044
1.00106
1.00742
1.00452
1.00572
1.009
1.01264
1.01232
1.01811
1.01707
1.02532
1.02903
1.03496
1.03496
1.03784
1.03349
1.03498
1.03395
1.03309
1.02255
1.01968
1.01704
1.01779
1.01218
1.01605
1.01211
1.01608
1.01271
1.0174
1.0144
1.01966
1.01739
1.0217
1.02063
1.02397
1.02365
1.02634
1.02642
1.02859
1.02954
1.03156
1.0322
1.03354
1.03483
1.03639
1.03714
1.03834
1.03961
1.04056
1.04215
1.0422
1.04389
1.04447
1.04561
1.04618
1.04684
1.04762
1.04837
1.04882
1.04902
1.04954
1.04983
1.04993
1.05027
1.05031
1.05011
1.0498
1.04988
1.0494
1.04931
1.04847
1.04835
1.04771
1.04699
1.04648
1.04547
1.04482
1.04378
1.04281
1.04172
1.04052
1.0394
1.0378
1.03667
1.03524
1.03347
1.03181
1.02976
1.02796
1.02579
1.02355
1.02128
1.01862
1.01617
1.01334
1.01049
1.0077
1.00453
0.999952
0.995276
0.993303
0.991302
0.987181
0.982909
0.978174
0.973322
0.968414
0.963479
0.957668
0.952714
0.947372
0.942495
0.93683
0.932482
0.927731
0.924342
0.920576
0.920015
0.917525
0.921656
0.922327
0.923502
0.929563
0.932214
0.936909
0.941337
0.945063
0.951425
0.954804
0.961082
0.963937
0.970101
0.973277
0.978829
0.981097
0.987363
0.988601
0.99586
0.996994
1.00388
1.00424
1.01131
1.01303
1.0192
1.02172
1.02765
1.02999
1.03626
1.03918
1.04516
1.04873
1.05529
1.05926
1.06634
1.07039
1.07711
1.08138
1.08909
1.09401
1.10228
1.10769
1.11636
1.12309
1.13225
1.13971
1.15
1.15907
1.16923
1.1803
1.19073
1.20221
1.21387
1.22467
1.2346
1.24419
1.24939
1.25647
1.24792
1.24397
1.21285
1.18648
1.1356
1.09491
1.04092
1.00474
0.955452
0.916858
0.874389
0.842272
0.804357
0.784095
0.756833
0.746353
0.728621
0.721781
0.709133
0.707299
0.701841
0.697335
0.696067
0.692814
0.691335
0.690222
0.686881
0.687224
0.685179
0.68396
0.681917
0.682371
0.681511
0.68044
0.679127
0.679713
0.679252
0.679001
0.67392
0.672625
0.669575
0.670393
0.670586
0.671614
0.672015
0.673011
0.673572
0.675318
0.675229
0.673884
0.669485
0.667428
0.664198
0.664051
0.662933
0.662436
0.661587
0.661518
0.660715
0.659527
0.658956
0.657803
0.655479
0.654573
0.652949
0.648893
0.650853
0.65068
0.642167
0.645955
0.653695
0.70025
0.796086
0.843526
0.844241
0.841597
0.844918
0.846654
0.848216
0.849454
0.851044
0.853317
0.855877
0.858997
0.862121
0.865682
0.869903
0.874471
0.877329
0.880531
0.884466
0.889256
0.892758
0.896069
0.899354
0.902985
0.906045
0.909111
0.911812
0.914659
0.917227
0.919888
0.922269
0.924786
0.926815
0.929077
0.930836
0.932834
0.934338
0.935862
0.93712
0.938159
0.939189
0.939826
0.940418
0.940534
0.940693
0.940106
0.939744
0.939725
0.939589
0.93936
0.93924
0.939224
0.939007
0.939176
0.939343
0.939421
0.939718
0.939838
0.940376
0.940979
0.941873
0.942385
0.943092
0.943348
0.943765
0.943953
0.944132
0.944216
0.944992
0.94507
0.946126
0.944687
0.944743
0.945156
0.946404
0.946086
0.946526
0.944153
0.945967
0.944836
0.946369
0.945472
0.946547
0.945248
0.94727
0.946234
0.950256
0.95285
0.951306
0.963136
0.97498
0.978466
0.997124
1.0166
1.03554
1.03817
1.03543
1.0279
1.02547
1.0176
1.01565
1.01173
1.01223
1.00909
1.00557
1.00441
1.00718
1.00046
1.00299
1.01584
1.00244
1.01746
1.00783
1.0102
1.01015
1.0078
1.01686
1.00239
1.01581
1.00369
1.00034
1.00754
1.00408
1.00567
1.00911
1.01254
1.01188
1.01579
1.01783
1.02598
1.02725
1.03354
1.03636
1.03774
1.03341
1.03489
1.03378
1.03379
1.02657
1.02621
1.02183
1.02013
1.01789
1.01851
1.01643
1.01851
1.01718
1.01889
1.01953
1.02079
1.02225
1.02313
1.02487
1.02603
1.02699
1.02914
1.02872
1.03179
1.0324
1.03337
1.03504
1.03612
1.03728
1.03876
1.03931
1.04103
1.04185
1.04329
1.04424
1.04491
1.04606
1.04681
1.04814
1.04843
1.0494
1.04994
1.05089
1.05133
1.0515
1.05201
1.05224
1.05246
1.05299
1.05272
1.05271
1.05241
1.05252
1.05217
1.0521
1.05126
1.05116
1.05061
1.04991
1.04951
1.0485
1.04791
1.04692
1.046
1.04494
1.04389
1.04278
1.04124
1.04026
1.03884
1.0372
1.0356
1.03362
1.03189
1.02971
1.02754
1.02526
1.02261
1.02017
1.01732
1.01451
1.01167
1.00845
1.0038
0.998927
0.9968
0.994335
0.989731
0.985235
0.98022
0.975083
0.969841
0.964597
0.958557
0.953377
0.947952
0.942914
0.937382
0.932854
0.928253
0.924696
0.921267
0.920427
0.918142
0.922023
0.922962
0.923869
0.929918
0.932402
0.937343
0.941494
0.945432
0.951575
0.955122
0.961127
0.964379
0.970202
0.97375
0.979077
0.981386
0.9876
0.989086
0.99614