/*--------------------------------*- C++ -*----------------------------------*\
| =========                 |                                                 |
| \\      /  F ield         | OpenFOAM: The Open Source CFD Toolbox           |
|  \\    /   O peration     | Version:  v2006                                 |
|   \\  /    A nd           | Website:  www.openfoam.com                      |
|    \\/     M anipulation  |                                                 |
\*---------------------------------------------------------------------------*/
FoamFile
{
    version     2.0;
    format      ascii;
    class       volScalarField;
    location    "100";
    object      T;
}
// * * * * * * * * * * * * * * * * * * * * * * * * * * * * * * * * * * * * * //

dimensions      [0 0 0 1 0 0 0];


internalField   nonuniform List<scalar> 
93840
(
1.00368
1.00254
1.00587
1.00011
1.00523
1.00192
1.00197
0.998357
0.996562
1.00327
0.999563
1.00451
1.00304
1.00673
1.00862
1.01091
1.01081
1.01092
1.01418
1.0133
1.01341
1.01653
1.02728
1.03599
1.03358
1.03524
1.03357
1.02888
1.02431
1.03086
1.02809
1.03949
1.03624
1.03503
1.03974
1.03837
1.04127
1.041
1.04316
1.04288
1.04475
1.0439
1.0456
1.04557
1.0468
1.04687
1.04776
1.04793
1.04885
1.04899
1.04977
1.05011
1.05062
1.05125
1.05164
1.05141
1.05207
1.05246
1.05306
1.05315
1.05393
1.05384
1.05467
1.0545
1.05489
1.05495
1.05537
1.05521
1.05568
1.05571
1.05576
1.05582
1.056
1.05601
1.05611
1.05603
1.05615
1.05603
1.05611
1.05597
1.05596
1.05592
1.05585
1.05568
1.05558
1.05537
1.05527
1.05499
1.05494
1.05472
1.05447
1.05413
1.05378
1.05343
1.05307
1.05258
1.05214
1.05156
1.05107
1.0504
1.04975
1.04913
1.04854
1.0469
1.04491
1.0446
1.0447
1.04343
1.04186
1.0402
1.03848
1.03671
1.03496
1.03263
1.0304
1.02809
1.02593
1.02323
1.02081
1.01824
1.01612
1.01355
1.01208
1.01005
1.00977
1.00993
1.00801
1.01027
1.00944
1.01034
1.0108
1.01141
1.01241
1.01294
1.01364
1.01419
1.01492
1.01569
1.0162
1.01644
1.01704
1.01693
1.01811
1.01811
1.01886
1.01859
1.0195
1.01963
1.02022
1.02092
1.02136
1.02198
1.02228
1.02315
1.02371
1.02471
1.02543
1.02667
1.02776
1.02915
1.02995
1.03082
1.03199
1.03321
1.03467
1.03633
1.03842
1.04026
1.04212
1.0441
1.0468
1.05034
1.05374
1.0568
1.06054
1.0654
1.07029
1.0764
1.08209
1.08806
1.09266
1.09744
1.09513
1.08186
1.06814
1.03437
1.00458
0.977199
0.965929
0.960566
0.936733
0.918985
0.909212
0.901822
0.890488
0.891748
0.889198
0.893617
0.889693
0.893282
0.896318
0.898902
0.902006
0.905197
0.907892
0.909344
0.912129
0.915076
0.917858
0.920136
0.922221
0.924909
0.926859
0.929114
0.931811
0.934641
0.937075
0.938474
0.941371
0.942954
0.942493
0.944659
0.946588
0.949133
0.952157
0.954428
0.956837
0.958759
0.961346
0.963314
0.964544
0.964091
0.964271
0.964352
0.96506
0.966511
0.968394
0.968671
0.970589
0.970717
0.97242
0.972231
0.974072
0.973467
0.975373
0.974552
0.975502
0.973604
0.978726
0.975966
0.974817
0.98012
0.988616
1.02671
1.07063
1.08274
1.07904
1.07357
1.07079
1.06789
1.06593
1.06413
1.06294
1.06223
1.0621
1.06218
1.06241
1.06291
1.06429
1.06534
1.0652
1.0652
1.06639
1.06775
1.06838
1.06862
1.06943
1.07029
1.07117
1.07169
1.07247
1.07288
1.07371
1.074
1.07488
1.07505
1.07591
1.07584
1.07675
1.07637
1.07737
1.07633
1.07738
1.07541
1.07668
1.07373
1.07516
1.07057
1.07077
1.03925
1.04458
1.04748
1.04615
1.04512
1.0447
1.04743
1.04844
1.04977
1.04941
1.04872
1.04771
1.0463
1.04439
1.04538
1.04332
1.04278
1.04781
1.04431
1.04703
1.04741
1.04861
1.04793
1.04636
1.04092
1.03234
1.03208
1.06633
1.0725
1.07046
1.07878
1.07169
1.0795
1.07684
1.07729
1.07933
1.07764
1.07641
1.06482
1.06227
1.0478
1.03817
1.03462
1.02721
1.03005
1.03719
1.02902
1.01686
1.01301
1.01334
1.01376
1.01349
1.01135
1.0106
1.00902
1.00797
1.00407
1.00478
0.999613
1.00324
0.997543
0.998435
1.00295
1.00197
1.00523
1.00013
1.00587
1.00258
1.00371
1.00369
1.00253
1.00588
1.00012
1.00526
1.00187
1.00278
0.99834
0.997523
1.00321
0.999704
1.00456
1.00404
1.00792
1.00934
1.01005
1.0114
1.01277
1.01375
1.01314
1.01217
1.01366
1.02272
1.03243
1.03061
1.03549
1.03812
1.03682
1.03512
1.03614
1.03426
1.03484
1.03641
1.03661
1.03925
1.0387
1.04129
1.04109
1.04306
1.04324
1.04469
1.04442
1.04603
1.04615
1.04744
1.04763
1.0485
1.04884
1.04986
1.05008
1.05081
1.05123
1.05186
1.05244
1.05292
1.05285
1.05359
1.05401
1.0545
1.05472
1.0554
1.05554
1.05622
1.05606
1.05654
1.05652
1.05694
1.05677
1.05722
1.05721
1.05725
1.05726
1.05734
1.05735
1.05735
1.05724
1.05726
1.05707
1.0571
1.05684
1.05678
1.05662
1.05645
1.05618
1.05595
1.05566
1.05539
1.055
1.0548
1.05439
1.054
1.05343
1.0529
1.05233
1.05171
1.05099
1.05026
1.0494
1.0486
1.04758
1.0466
1.04558
1.04453
1.04236
1.03995
1.03934
1.03896
1.03707
1.03492
1.03262
1.03027
1.02782
1.02538
1.02231
1.01941
1.01639
1.01357
1.01016
1.0072
1.00405
1.00152
0.998543
0.99694
0.994745
0.994654
0.994711
0.992959
0.995522
0.994665
0.996015
0.996553
0.997478
0.998701
0.999458
1.00039
1.00118
1.00213
1.00306
1.0038
1.00421
1.00506
1.00515
1.0066
1.00665
1.00769
1.00755
1.00885
1.00911
1.01014
1.01101
1.01165
1.0126
1.01329
1.01467
1.01572
1.01713
1.01831
1.02002
1.02166
1.02354
1.02496
1.02674
1.02878
1.03106
1.03343
1.03599
1.03882
1.04164
1.0445
1.04767
1.05129
1.05518
1.05912
1.06358
1.06837
1.07315
1.07818
1.08308
1.08827
1.09332
1.09716
1.09935
1.09769
1.09133
1.07935
1.05236
1.02367
0.994583
0.973707
0.959978
0.93435
0.915263
0.900679
0.888146
0.870748
0.867685
0.860328
0.861541
0.85461
0.855679
0.856577
0.858238
0.859575
0.861093
0.864382
0.86615
0.868208
0.870658
0.874069
0.876687
0.87858
0.88149
0.88412
0.88642
0.888816
0.891918
0.89507
0.896918
0.899721
0.901706
0.901493
0.903879
0.905819
0.90847
0.911944
0.914486
0.917445
0.919715
0.922813
0.925226
0.927075
0.927107
0.927515
0.927645
0.928591
0.929968
0.932346
0.932852
0.934971
0.935072
0.937455
0.937399
0.939931
0.93908
0.941214
0.94028
0.942243
0.939688
0.945658
0.942643
0.942635
0.945694
0.959378
1.00135
1.05515
1.07536
1.07263
1.06747
1.06534
1.06287
1.06129
1.05978
1.05885
1.05841
1.05857
1.05896
1.05953
1.06039
1.06224
1.0638
1.06402
1.06428
1.06579
1.06756
1.06857
1.06913
1.07028
1.0715
1.07274
1.07359
1.07468
1.07537
1.07645
1.07699
1.07809
1.07849
1.07951
1.07965
1.0807
1.08053
1.0817
1.08096
1.08232
1.08074
1.08249
1.07977
1.08232
1.07772
1.0821
1.0706
1.06535
1.06389
1.06317
1.06274
1.0589
1.05975
1.06349
1.06613
1.06876
1.07144
1.07327
1.07387
1.07302
1.07329
1.07284
1.07337
1.07548
1.07306
1.07318
1.0721
1.07097
1.06887
1.06509
1.06188
1.06251
1.07003
1.07953
1.07637
1.07973
1.08025
1.08007
1.07996
1.08026
1.07912
1.07957
1.08164
1.07891
1.07608
1.0765
1.07189
1.06118
1.05429
1.04035
1.03137
1.0373
1.03526
1.02058
1.01428
1.01365
1.014
1.0111
1.01097
1.011
1.00904
1.00702
1.00298
1.00474
0.999614
1.00334
0.996943
0.998363
1.00192
1.00201
1.00514
1.00009
1.00597
1.00248
1.00367
1.00371
1.00252
1.00584
1.00011
1.00505
1.00176
1.00246
0.998347
0.996869
1.00322
0.999589
1.00461
1.00327
1.00705
1.00873
1.0115
1.0105
1.01143
1.01425
1.01316
1.01285
1.01293
1.01914
1.02846
1.02894
1.03083
1.0358
1.03284
1.0338
1.03566
1.03533
1.0363
1.03593
1.03711
1.03892
1.03839
1.04098
1.04043
1.04307
1.04252
1.04458
1.04401
1.04576
1.04567
1.0471
1.04732
1.04805
1.04861
1.04949
1.04983
1.05055
1.05111
1.0515
1.05221
1.05264
1.05272
1.05339
1.05373
1.05431
1.05461
1.0551
1.05542
1.05586
1.05587
1.05619
1.05624
1.05663
1.05641
1.05683
1.05676
1.05677
1.05673
1.05677
1.05675
1.05666
1.05652
1.05646
1.05622
1.05616
1.05583
1.05572
1.05542
1.05521
1.05483
1.05448
1.05413
1.0537
1.05322
1.05288
1.05232
1.05179
1.05102
1.05034
1.04957
1.04872
1.04781
1.04681
1.04571
1.04465
1.04333
1.04207
1.0407
1.0393
1.03678
1.03401
1.03303
1.0322
1.02987
1.02728
1.02449
1.02167
1.01874
1.01583
1.01229
1.00898
1.00554
1.00238
0.998633
0.995465
0.992107
0.989513
0.986441
0.984951
0.982814
0.982922
0.98301
0.981578
0.984264
0.983613
0.9852
0.985872
0.987122
0.988475
0.989506
0.990694
0.991619
0.992826
0.993963
0.99493
0.995566
0.996625
0.996946
0.998614
0.998954
1.00024
1.00043
1.00205
1.00261
1.00384
1.00504
1.00615
1.00723
1.00846
1.00999
1.01161
1.01333
1.01484
1.01661
1.01863
1.02092
1.02269
1.02447
1.02669
1.02882
1.03139
1.03388
1.03682
1.03957
1.04218
1.04516
1.04859
1.05251
1.05605
1.05981
1.06415
1.0691
1.07434
1.0806
1.08544
1.09134
1.09325
1.09646
1.09525
1.0879
1.06804
1.04525
1.01754
0.992373
0.971782
0.961152
0.937329
0.918839
0.902212
0.890374
0.873472
0.869649
0.861091
0.859841
0.852237
0.850914
0.849729
0.848198
0.84894
0.848787
0.848745
0.847946
0.84914
0.850238
0.851567
0.852605
0.853544
0.85507
0.856642
0.858413
0.860476
0.86263
0.865195
0.8667
0.869669
0.871256
0.870686
0.872527
0.8746
0.877032
0.880357
0.882775
0.885698
0.887947
0.891348
0.893671
0.896005
0.896108
0.89699
0.897078
0.898196
0.899808
0.902294
0.902674
0.905186
0.905625
0.908062
0.908089
0.910498
0.910284
0.913003
0.912305
0.913968
0.911765
0.917647
0.915096
0.915444
0.917228
0.934111
0.981583
1.03582
1.05961
1.05922
1.05547
1.05482
1.05331
1.05251
1.05161
1.0512
1.05126
1.05187
1.05268
1.05365
1.05494
1.05725
1.05925
1.05983
1.06041
1.06226
1.06436
1.06567
1.06653
1.068
1.06957
1.07113
1.0723
1.07367
1.07464
1.07596
1.07676
1.07805
1.07869
1.07986
1.08025
1.0814
1.0815
1.08273
1.08234
1.08376
1.08268
1.08439
1.08245
1.0845
1.08154
1.08372
1.08007
1.07617
1.07392
1.07155
1.0698
1.06679
1.06472
1.06525
1.06692
1.06911
1.07134
1.07327
1.07512
1.07662
1.0767
1.077
1.07684
1.07716
1.07684
1.07652
1.07637
1.07567
1.07519
1.07455
1.07431
1.07523
1.07726
1.07905
1.07855
1.0794
1.07941
1.07963
1.07965
1.07964
1.0782
1.07938
1.08049
1.08022
1.07682
1.07932
1.07705
1.06688
1.07091
1.0599
1.03608
1.03872
1.03758
1.02337
1.01488
1.01408
1.01398
1.01222
1.01068
1.01075
1.00852
1.00816
1.00376
1.00485
0.999454
1.00345
0.997333
0.998353
1.0028
1.00204
1.00533
1.00023
1.00604
1.00254
1.0037
1.0037
1.00256
1.00577
1.0001
1.00501
1.00187
1.00248
0.998264
0.99775
1.00318
0.999647
1.0045
1.00366
1.00798
1.00903
1.00998
1.01148
1.0129
1.01357
1.01307
1.01193
1.01226
1.01692
1.02557
1.02773
1.0298
1.03452
1.03411
1.03239
1.0348
1.0336
1.03524
1.03533
1.03686
1.03749
1.03844
1.03939
1.04035
1.04121
1.04229
1.04286
1.04344
1.04443
1.04509
1.04589
1.0465
1.04705
1.04773
1.04853
1.04911
1.04952
1.05024
1.05044
1.05133
1.05178
1.05193
1.05247
1.05295
1.05333
1.0537
1.05413
1.05454
1.05491
1.05488
1.05525
1.05529
1.05558
1.0554
1.05579
1.05572
1.05568
1.05562
1.05557
1.05555
1.05538
1.05525
1.0551
1.05483
1.05472
1.05433
1.05417
1.05379
1.05352
1.05306
1.05263
1.05222
1.05165
1.05111
1.05065
1.04996
1.04933
1.0484
1.0476
1.04665
1.04564
1.04457
1.04335
1.04208
1.0408
1.03925
1.03778
1.03614
1.03448
1.0317
1.02869
1.02742
1.02622
1.02357
1.0207
1.01757
1.01447
1.01123
1.00804
1.00424
1.00074
0.997117
0.99382
0.989967
0.986799
0.983431
0.980902
0.977918
0.976607
0.97461
0.974951
0.975036
0.973949
0.97663
0.976202
0.978012
0.978766
0.980178
0.981693
0.982914
0.98421
0.985418
0.986764
0.988101
0.989272
0.990105
0.991478
0.99213
0.994139
0.994702
0.996406
0.996897
0.998966
0.999735
1.0016
1.00313
1.00465
1.00647
1.00776
1.00967
1.01153
1.01348
1.0152
1.01733
1.01956
1.02199
1.02398
1.02577
1.02776
1.03021
1.0327
1.03556
1.03849
1.04133
1.04411
1.04709
1.05062
1.05439
1.05819
1.06213
1.06657
1.07112
1.07577
1.08108
1.08628
1.09136
1.09457
1.09537
1.09387
1.08688
1.07321
1.05436
1.03036
1.00607
0.984137
0.96925
0.945673
0.92728
0.910632
0.897562
0.878313
0.87294
0.862776
0.861112
0.852913
0.85079
0.848698
0.846744
0.846496
0.846178
0.845385
0.844407
0.844208
0.843795
0.843642
0.843856
0.843871
0.843869
0.84417
0.844289
0.844852
0.845885
0.847849
0.848565
0.85024
0.851292
0.850412
0.852145
0.853417
0.8554
0.858545
0.860728
0.86354
0.865589
0.868842
0.871194
0.873289
0.873825
0.874587
0.874877
0.876006
0.877557
0.879997
0.880844
0.882921
0.883551
0.88613
0.886728
0.889235
0.889204
0.891035
0.89103
0.893036
0.891437
0.896231
0.895601
0.894163
0.899041
0.9131
0.962072
1.01945
1.04269
1.04467
1.04257
1.04344
1.04304
1.04311
1.04291
1.04309
1.04369
1.04478
1.04603
1.0474
1.04911
1.05182
1.05422
1.05514
1.05604
1.05817
1.06056
1.06212
1.06324
1.06497
1.06683
1.06867
1.07012
1.07173
1.07295
1.07448
1.07551
1.07697
1.07784
1.07915
1.07976
1.08101
1.08135
1.08262
1.08254
1.08391
1.08333
1.08481
1.08374
1.08509
1.08378
1.08434
1.08345
1.08152
1.08013
1.07821
1.07648
1.07403
1.07128
1.06933
1.0688
1.06951
1.07091
1.07247
1.07363
1.07502
1.07638
1.07729
1.07738
1.07772
1.07774
1.07754
1.07768
1.07757
1.0777
1.07763
1.07753
1.078
1.07871
1.07907
1.07877
1.07952
1.07892
1.07919
1.07961
1.07967
1.07869
1.07923
1.07987
1.07931
1.07797
1.07988
1.07533
1.07122
1.08015
1.07514
1.04669
1.04129
1.04019
1.0263
1.0163
1.01397
1.01411
1.01219
1.0111
1.0109
1.00901
1.00714
1.00321
1.00474
0.999508
1.00345
0.99671
0.998365
1.00202
1.0021
1.00503
1.00007
1.00602
1.00251
1.00366
1.00371
1.00253
1.00583
1.0001
1.00513
1.00172
1.00256
0.998282
0.996752
1.00314
0.999703
1.00451
1.00329
1.00731
1.00888
1.01124
1.01075
1.01177
1.01416
1.01311
1.01273
1.01176
1.01363
1.02047
1.02601
1.02764
1.03039
1.03253
1.031
1.03323
1.0335
1.03461
1.03435
1.03591
1.03614
1.03734
1.03814
1.03896
1.04021
1.04081
1.04178
1.04208
1.04318
1.04358
1.0446
1.0451
1.0457
1.04641
1.04713
1.04771
1.04819
1.04895
1.04899
1.05002
1.05033
1.05066
1.05106
1.05163
1.05188
1.0524
1.05274
1.05316
1.05345
1.05349
1.0538
1.05384
1.05414
1.05396
1.05426
1.05417
1.05415
1.05403
1.05394
1.05391
1.05368
1.05354
1.05333
1.05303
1.05286
1.05241
1.05221
1.05174
1.05144
1.05088
1.05039
1.04991
1.04921
1.04862
1.04802
1.04722
1.04649
1.04541
1.04449
1.04337
1.04221
1.04098
1.03957
1.03815
1.03666
1.03492
1.03327
1.03138
1.02952
1.02651
1.0233
1.02177
1.02027
1.01739
1.01431
1.01095
1.00767
1.00424
1.00091
0.996995
0.993443
0.989785
0.986505
0.982694
0.979653
0.976382
0.974027
0.971187
0.97012
0.968318
0.968848
0.969056
0.968258
0.970994
0.970832
0.972764
0.973702
0.975346
0.976974
0.978419
0.979983
0.981279
0.98289
0.984438
0.985836
0.986995
0.988613
0.989548
0.991763
0.992741
0.994732
0.995437
0.997675
0.998786
1.00063
1.00226
1.00382
1.00543
1.00724
1.00895
1.01077
1.01253
1.01455
1.01662
1.01891
1.02085
1.02295
1.02512
1.02733
1.02945
1.03204
1.03434
1.03741
1.04031
1.04323
1.04646
1.04957
1.05356
1.05734
1.06129
1.06511
1.07029
1.07454
1.08032
1.08353
1.0894
1.09239
1.09403
1.09195
1.08541
1.06887
1.05082
1.02618
1.00443
0.982645
0.969507
0.947424
0.929318
0.912391
0.899702
0.881992
0.876244
0.86558
0.864494
0.855644
0.853
0.851936
0.849744
0.848871
0.847702
0.848198
0.845612
0.845569
0.845453
0.845468
0.844432
0.84459
0.843303
0.843727
0.842787
0.842815
0.842925
0.843564
0.843029
0.84343
0.843359
0.841298
0.841171
0.841581
0.842314
0.844357
0.845691
0.847669
0.849075
0.851826
0.853747
0.855808
0.855904
0.856625
0.85685
0.857637
0.859201
0.861475
0.862482
0.864339
0.865114
0.867288
0.868378
0.870432
0.871035
0.872902
0.873261
0.874273
0.874061
0.877588
0.878306
0.875861
0.881542
0.894748
0.943645
1.00201
1.02577
1.02901
1.02798
1.03024
1.03101
1.03206
1.03267
1.03355
1.03479
1.03646
1.03822
1.04005
1.04223
1.04538
1.04819
1.04947
1.05073
1.05319
1.05589
1.05771
1.05909
1.06109
1.06325
1.06537
1.06711
1.06898
1.07048
1.07223
1.07351
1.07516
1.07626
1.07772
1.07858
1.07993
1.08053
1.08183
1.08207
1.08336
1.08325
1.08447
1.08417
1.08498
1.08474
1.08478
1.08452
1.08381
1.08323
1.08225
1.08123
1.07976
1.07781
1.07557
1.07353
1.07221
1.07217
1.07274
1.07354
1.07428
1.07483
1.0754
1.07597
1.07707
1.07777
1.07765
1.07784
1.07788
1.07828
1.07827
1.07854
1.07866
1.07922
1.07937
1.0791
1.07914
1.07871
1.07913
1.07961
1.07951
1.07864
1.07905
1.07926
1.07961
1.07983
1.08004
1.07798
1.07569
1.08511
1.07943
1.05604
1.04569
1.04276
1.02942
1.01761
1.01476
1.01411
1.01211
1.01069
1.01045
1.00819
1.00812
1.0038
1.00479
0.999415
1.00341
0.997453
0.998395
1.00279
1.00215
1.00557
1.00029
1.0061
1.00257
1.00368
1.00368
1.00251
1.00573
1.0001
1.00509
1.00171
1.00258
0.998238
0.997577
1.00305
0.999762
1.00442
1.00351
1.0079
1.00903
1.01024
1.01136
1.01268
1.01364
1.01307
1.01197
1.01186
1.01288
1.01691
1.02266
1.02658
1.0286
1.03058
1.02963
1.03153
1.03123
1.03272
1.03274
1.03411
1.03454
1.03583
1.03628
1.03761
1.03812
1.03925
1.0398
1.04033
1.04132
1.04208
1.04268
1.04336
1.04403
1.04447
1.04539
1.04597
1.04649
1.04714
1.04724
1.04818
1.04864
1.04898
1.04925
1.0499
1.05018
1.05052
1.05108
1.05128
1.05169
1.05168
1.05201
1.05199
1.05229
1.05212
1.05242
1.05229
1.0522
1.05211
1.05197
1.0519
1.05161
1.05149
1.0512
1.05086
1.05065
1.05016
1.0499
1.04936
1.04902
1.04836
1.04782
1.04726
1.04644
1.0458
1.04505
1.04416
1.04331
1.0421
1.04108
1.03978
1.0385
1.03712
1.03553
1.03399
1.0323
1.03041
1.02859
1.0265
1.02447
1.02127
1.01793
1.0162
1.01443
1.01142
1.00821
1.00474
1.00139
0.997878
0.994531
0.990626
0.987156
0.983596
0.980421
0.97677
0.973943
0.970869
0.968704
0.966128
0.965314
0.963706
0.964457
0.964833
0.964333
0.967168
0.96728
0.969468
0.970632
0.972501
0.974462
0.97617
0.977968
0.979653
0.981525
0.983288
0.984959
0.986365
0.988328
0.989363
0.991688
0.992662
0.994765
0.995475
0.997797
0.9988
1.00104
1.00249
1.00406
1.00581
1.00727
1.00935
1.01109
1.01292
1.01484
1.01711
1.01927
1.02129
1.0232
1.02546
1.0276
1.03012
1.03263
1.03525
1.03808
1.04104
1.04374
1.04706
1.05048
1.05447
1.05782
1.06237
1.06621
1.07148
1.07549
1.08156
1.08496
1.08859
1.09169
1.09262
1.09049
1.08374
1.07048
1.05496
1.03484
1.01333
0.992304
0.976029
0.954082
0.936268
0.920134
0.905646
0.886764
0.878944
0.868891
0.865286
0.856636
0.854903
0.849262
0.849859
0.847719
0.84699
0.84441
0.844697
0.844592
0.843318
0.842664
0.843274
0.841954
0.841438
0.841679
0.84032
0.841294
0.840797
0.840741
0.84034
0.840849
0.840574
0.837835
0.837408
0.837017
0.836923
0.837757
0.838126
0.839222
0.839593
0.841227
0.842422
0.843282
0.843171
0.843003
0.843072
0.843322
0.844839
0.846385
0.847478
0.848985
0.850096
0.85177
0.852904
0.854477
0.855497
0.856503
0.857722
0.858484
0.85833
0.861182
0.863026
0.85992
0.865648
0.878246
0.926279
0.984692
1.00903
1.01279
1.01237
1.01571
1.01757
1.0196
1.02107
1.02268
1.0246
1.02691
1.02926
1.0316
1.03428
1.0379
1.04117
1.04285
1.0445
1.04732
1.05035
1.05245
1.05412
1.0564
1.05886
1.06129
1.06334
1.06549
1.06727
1.06927
1.07082
1.07267
1.07403
1.07566
1.07677
1.07824
1.07912
1.08047
1.08103
1.08225
1.08256
1.08358
1.08384
1.08443
1.08469
1.08481
1.08479
1.08454
1.08449
1.08405
1.08365
1.08298
1.08211
1.08073
1.07931
1.07752
1.07579
1.07497
1.0749
1.07518
1.07536
1.07565
1.07558
1.07577
1.07599
1.07639
1.07694
1.07746
1.07741
1.07778
1.0784
1.07899
1.07935
1.07891
1.07913
1.07925
1.07821
1.07875
1.07912
1.07874
1.07827
1.07903
1.07882
1.07987
1.07998
1.08092
1.08007
1.08023
1.08574
1.07717
1.06181
1.052
1.04616
1.03269
1.0198
1.01441
1.01438
1.01201
1.01125
1.01092
1.0094
1.00698
1.00318
1.0049
0.999572
1.00337
0.996837
0.998449
1.0021
1.00208
1.00512
1.00004
1.00612
1.00246
1.00364
1.0037
1.00253
1.0058
1.00013
1.00507
1.00165
1.00257
0.998233
0.996783
1.00313
0.999541
1.0044
1.00333
1.00732
1.00893
1.01101
1.01066
1.01165
1.01452
1.01308
1.01262
1.0116
1.01199
1.01418
1.01841
1.02439
1.02515
1.02829
1.02676
1.03014
1.02929
1.03114
1.03098
1.03235
1.03274
1.03386
1.03462
1.03534
1.0365
1.03709
1.03792
1.03837
1.03925
1.03985
1.04061
1.04132
1.04184
1.04248
1.04331
1.04396
1.04431
1.04507
1.04514
1.04614
1.04649
1.04695
1.04718
1.04781
1.04812
1.04843
1.04901
1.04908
1.04963
1.04954
1.04992
1.04981
1.05013
1.05
1.05019
1.05007
1.05
1.04985
1.04966
1.0496
1.04924
1.04913
1.04877
1.0484
1.04815
1.0476
1.04729
1.04668
1.04629
1.04554
1.04496
1.0443
1.04338
1.0427
1.0418
1.04083
1.03986
1.03853
1.03741
1.03595
1.03457
1.03305
1.03132
1.02967
1.02782
1.02581
1.02385
1.0216
1.01945
1.0161
1.0127
1.01083
1.00889
1.00583
1.00259
0.999111
0.995799
0.992327
0.989072
0.985302
0.982011
0.97864
0.975667
0.972231
0.969674
0.966867
0.964971
0.962716
0.962205
0.961021
0.962002
0.962719
0.962467
0.96557
0.965943
0.968411
0.969706
0.971823
0.973835
0.975757
0.977684
0.979334
0.981214
0.983068
0.984687
0.986207
0.988037
0.98916
0.99134
0.992449
0.994458
0.995174
0.997431
0.998789
1.00055
1.0023
1.00397
1.00561
1.00716
1.00905
1.01083
1.01293
1.01468
1.01669
1.01877
1.02127
1.02294
1.02522
1.02733
1.02993
1.03213
1.03507
1.03735
1.04088
1.04304
1.04688
1.04944
1.05418
1.05683
1.06198
1.06453
1.07018
1.07352
1.07935
1.08357
1.08737
1.08994
1.0911
1.0885
1.08142
1.06712
1.05325
1.03154
1.01145
0.991592
0.975972
0.955627
0.938014
0.921799
0.907581
0.890406
0.882743
0.872062
0.868496
0.859611
0.858184
0.852123
0.852649
0.850549
0.849784
0.847643
0.846106
0.845737
0.846051
0.844927
0.845182
0.843725
0.844015
0.84273
0.84266
0.84187
0.842602
0.842237
0.841553
0.84192
0.841434
0.838589
0.838474
0.837081
0.837333
0.83845
0.838366
0.838738
0.838967
0.840239
0.840232
0.840456
0.839522
0.838037
0.837147
0.836005
0.83645
0.836986
0.83776
0.83806
0.838656
0.839565
0.840958
0.841972
0.842963
0.843334
0.844233
0.844712
0.845266
0.847352
0.84933
0.84659
0.851408
0.863998
0.909921
0.968365
0.992423
0.996363
0.996318
1.00048
1.00322
1.00609
1.00836
1.01067
1.01328
1.01624
1.0192
1.02207
1.02529
1.02941
1.03315
1.03525
1.03733
1.04054
1.04394
1.04636
1.04833
1.05089
1.05367
1.05641
1.05879
1.06124
1.06334
1.06559
1.06744
1.06952
1.07115
1.07297
1.07435
1.07597
1.07713
1.07856
1.07943
1.08065
1.0813
1.08226
1.08286
1.08345
1.08395
1.08425
1.08436
1.08439
1.08467
1.08456
1.08461
1.08428
1.08418
1.08351
1.08294
1.08197
1.08086
1.07933
1.07789
1.07739
1.07715
1.0771
1.07695
1.07673
1.0767
1.07643
1.07662
1.07646
1.07652
1.07662
1.07673
1.07745
1.07867
1.07913
1.07894
1.0794
1.07886
1.079
1.07896
1.07912
1.07894
1.07865
1.07835
1.07988
1.08035
1.08161
1.08163
1.0824
1.08531
1.07278
1.06317
1.06028
1.05232
1.03647
1.02131
1.01612
1.0145
1.01199
1.01038
1.01066
1.00819
1.00762
1.00366
1.00491
0.999429
1.00345
0.997252
0.998397
1.00274
1.00214
1.00544
1.00032
1.00619
1.00255
1.00368
1.0037
1.0026
1.00571
1.0001
1.00511
1.00165
1.00249
0.998266
0.997667
1.00303
0.999666
1.00429
1.00367
1.00768
1.00892
1.01026
1.01168
1.01308
1.01336
1.01301
1.01213
1.01163
1.01173
1.01243
1.0139
1.0217
1.0232
1.02467
1.02589
1.02619
1.02777
1.02793
1.02916
1.02947
1.03066
1.03133
1.03231
1.0331
1.03432
1.03452
1.03559
1.03585
1.03676
1.03774
1.03814
1.03889
1.03952
1.04018
1.04086
1.04151
1.04196
1.04259
1.04293
1.04371
1.04411
1.04454
1.04482
1.04534
1.04579
1.04606
1.04664
1.04667
1.04724
1.04709
1.04755
1.04726
1.04771
1.0476
1.04776
1.04751
1.04744
1.04738
1.04707
1.047
1.04661
1.04651
1.04604
1.04565
1.04538
1.04477
1.04442
1.04375
1.04331
1.04247
1.04186
1.04109
1.04008
1.03936
1.03831
1.03727
1.0362
1.03477
1.03355
1.03195
1.03051
1.02886
1.02702
1.02529
1.0233
1.02123
1.01916
1.01682
1.0146
1.01119
1.00782
1.00587
1.00383
1.00082
0.997664
0.9943
0.991127
0.987802
0.984723
0.981214
0.978205
0.975173
0.972603
0.969806
0.967423
0.965316
0.963431
0.962453
0.96132
0.961514
0.960785
0.963555
0.961583
0.966439
0.965302
0.969341
0.969053
0.97271
0.973123
0.976656
0.976893
0.980277
0.980614
0.98406
0.984051
0.987016
0.987337
0.990094
0.990707
0.993434
0.99396
0.996452
0.99693
0.999706
1.0002
1.00317
1.00339
1.0069
1.00669
1.01026
1.01054
1.01397
1.01425
1.01799
1.01861
1.02244
1.02294
1.02647
1.02704
1.03102
1.0321
1.0364
1.03767
1.04202
1.04358
1.04817
1.05029
1.05517
1.05766
1.06275
1.06629
1.0709
1.07477
1.0791
1.08304
1.08629
1.08872
1.08957
1.08681
1.07976
1.06852
1.05446
1.03647
1.01705
0.997114
0.981868
0.960887
0.944938
0.927299
0.91375
0.894646
0.886873
0.873061
0.869474
0.860823
0.858296
0.85238
0.851063
0.847591
0.847919
0.845986
0.84528
0.8438
0.843496
0.842713
0.842482
0.841458
0.841675
0.840712
0.841599
0.839778
0.840477
0.839721
0.839729
0.839957
0.839159
0.837278
0.836242
0.835643
0.835436
0.836436
0.836171
0.8369
0.836892
0.837883
0.838586
0.838302
0.837516
0.835266
0.834626
0.832869
0.833159
0.832403
0.832551
0.832397
0.832491
0.832284
0.832731
0.832895
0.833385
0.833619
0.834281
0.834107
0.834026
0.836135
0.837766
0.835171
0.83926
0.851549
0.895057
0.953553
0.97672
0.980627
0.98066
0.985251
0.988567
0.992049
0.994964
0.997855
1.00105
1.00461
1.00817
1.01156
1.01531
1.01992
1.02416
1.0267
1.02921
1.03283
1.03663
1.03939
1.04168
1.04455
1.04766
1.05073
1.05345
1.05621
1.05864
1.06119
1.06335
1.06568
1.06761
1.06964
1.0713
1.0731
1.07454
1.07611
1.07727
1.07855
1.07949
1.08049
1.08131
1.082
1.08265
1.08313
1.08346
1.08362
1.08414
1.0842
1.08451
1.08454
1.08458
1.08458
1.08439
1.08421
1.08372
1.08314
1.0822
1.08107
1.08001
1.07936
1.07911
1.07882
1.0786
1.07823
1.07794
1.07761
1.07762
1.07741
1.07718
1.07694
1.07652
1.07706
1.07767
1.07761
1.07826
1.07873
1.07815
1.07841
1.07862
1.07828
1.07785
1.07914
1.08006
1.08161
1.08231
1.08378
1.0851
1.07057
1.06413
1.06948
1.06122
1.04143
1.02413
1.0163
1.01521
1.01099
1.01115
1.01031
1.00927
1.00762
1.00338
1.0048
0.999693
1.00344
0.996945
0.998455
1.00203
1.00211
1.00524
1.00009
1.00617
1.00248
1.0036
1.00371
1.00254
1.00576
1.00014
1.00514
1.00162
1.00245
0.998184
0.996906
1.00304
0.99968
1.00445
1.00337
1.00753
1.00902
1.01123
1.01048
1.01132
1.01486
1.013
1.0125
1.01168
1.01133
1.01118
1.01182
1.01605
1.02073
1.02101
1.02343
1.02347
1.0254
1.02526
1.02706
1.02687
1.02843
1.02896
1.02993
1.0307
1.0317
1.03209
1.03291
1.03329
1.0343
1.03478
1.03568
1.03619
1.03695
1.03747
1.03825
1.03885
1.03933
1.03979
1.04041
1.04099
1.04147
1.04188
1.04224
1.04271
1.04316
1.0435
1.04389
1.04397
1.04461
1.04443
1.04491
1.04449
1.04503
1.04493
1.045
1.04477
1.04465
1.04463
1.04425
1.04417
1.04372
1.04362
1.0431
1.04269
1.04238
1.04171
1.04132
1.04059
1.0401
1.03919
1.03855
1.03766
1.0366
1.03583
1.03464
1.03355
1.03239
1.03088
1.02958
1.02788
1.02641
1.02464
1.02276
1.02098
1.01891
1.01683
1.01471
1.01235
1.01012
1.00672
1.00351
1.00158
0.999553
0.996691
0.993687
0.990638
0.987761
0.984871
0.982179
0.979229
0.976524
0.973914
0.971577
0.969159
0.966977
0.965133
0.963326
0.962343
0.961198
0.96134
0.961107
0.96352
0.961801
0.966344
0.965403
0.969287
0.969059
0.972661
0.97311
0.976617
0.976979
0.980106
0.980383
0.983883
0.983977
0.987057
0.987227
0.989886
0.990663
0.993143
0.993673
0.996106
0.99692
0.999607
1.00014
1.00317
1.00342
1.00627
1.00672
1.00986
1.01037
1.01362
1.01452
1.01761
1.01873
1.0219
1.02283
1.0259
1.02719
1.03035
1.03218
1.0354
1.03763
1.04113
1.04334
1.0474
1.04991
1.05406
1.05703
1.06101
1.06476
1.06921
1.07311
1.07771
1.08143
1.08508
1.08734
1.08806
1.08517
1.07731
1.0645
1.05254
1.03399
1.01649
0.997405
0.981802
0.962783
0.946278
0.929768
0.915061
0.899313
0.889221
0.877895
0.872484
0.864693
0.861088
0.855992
0.854354
0.852562
0.849643
0.849743
0.847596
0.847588
0.845799
0.845707
0.84477
0.844883
0.843219
0.842855
0.842602
0.842048
0.841773
0.841895
0.840963
0.841694
0.840834
0.83937
0.837536
0.836875
0.836401
0.837443
0.837052
0.8379
0.837681
0.838943
0.838793
0.839228
0.837843
0.836124
0.83476
0.833565
0.833009
0.833003
0.832351
0.83251
0.831708
0.831807
0.830767
0.831273
0.830567
0.83008
0.829511
0.829596
0.827484
0.829811
0.830004
0.827916
0.830036
0.840918
0.881914
0.940487
0.963085
0.966018
0.96604
0.970771
0.974332
0.978095
0.981409
0.984677
0.988298
0.992323
0.996394
1.00024
1.00448
1.00954
1.01425
1.01723
1.02017
1.02421
1.02842
1.03155
1.03418
1.03736
1.0408
1.0442
1.04728
1.05038
1.05316
1.05602
1.05851
1.06112
1.06336
1.06564
1.0676
1.0696
1.07134
1.07307
1.07452
1.07593
1.07712
1.07824
1.07924
1.08007
1.08086
1.08149
1.08195
1.08232
1.08293
1.0833
1.0837
1.08394
1.08429
1.08437
1.08464
1.08473
1.08476
1.08464
1.08441
1.08398
1.08337
1.08256
1.08183
1.08125
1.08087
1.08043
1.08024
1.07972
1.0795
1.07926
1.07903
1.07889
1.07796
1.07739
1.07746
1.07765
1.07762
1.07769
1.07681
1.07759
1.0773
1.07774
1.07789
1.07859
1.07957
1.08144
1.08297
1.08451
1.08521
1.07191
1.06739
1.07841
1.06986
1.04791
1.02721
1.01768
1.01485
1.01246
1.01109
1.0106
1.00829
1.00745
1.00364
1.00477
0.999415
1.0036
0.997445
0.998367
1.00288
1.0021
1.00534
1.00031
1.00625
1.00253
1.00371
1.0037
1.00268
1.00569
1.00009
1.00516
1.00153
1.00274
0.998111
0.997641
1.00309
0.999641
1.00437
1.0036
1.00767
1.00878
1.00989
1.01174
1.01289
1.01352
1.01294
1.01242
1.01181
1.01126
1.01048
1.00977
1.01295
1.01769
1.01744
1.02042
1.02051
1.02177
1.02277
1.02345
1.02422
1.02529
1.02624
1.02692
1.02808
1.02851
1.02946
1.02948
1.03091
1.03069
1.0326
1.03249
1.03321
1.03408
1.0348
1.0353
1.03594
1.0363
1.03697
1.0375
1.0381
1.03849
1.03908
1.03919
1.03986
1.04021
1.04077
1.04091
1.04113
1.04167
1.04158
1.04196
1.04149
1.04209
1.04207
1.04202
1.04171
1.04164
1.04167
1.04112
1.04116
1.04067
1.04052
1.03992
1.0395
1.0392
1.03845
1.03804
1.03727
1.03673
1.03574
1.03508
1.03407
1.03299
1.03218
1.03085
1.02976
1.02852
1.02697
1.02561
1.02386
1.0224
1.02054
1.01868
1.0169
1.0148
1.01279
1.01066
1.00838
1.00623
1.00295
1.00006
0.998287
0.996469
0.99418
0.991552
0.988845
0.986306
0.983799
0.981431
0.978798
0.976382
0.973941
0.971706
0.969278
0.967261
0.965384
0.963716
0.96268
0.961636
0.961734
0.961424
0.963963
0.962443
0.966556
0.96598
0.969578
0.969537
0.972895
0.973503
0.976833
0.977409
0.980399
0.980962
0.983977
0.984371
0.987113
0.987865
0.990223
0.991201
0.993455
0.994316
0.996387
0.997432
0.9998
1.00072
1.00353
1.00408
1.00722
1.00749
1.01042
1.01114
1.01392
1.01497
1.01822
1.01932
1.02245
1.0239
1.02678
1.02815
1.03112
1.03295
1.03634
1.03855
1.04224
1.04413
1.0482
1.05097
1.05462
1.05847
1.06201
1.06551
1.07002
1.07355
1.07749
1.08098
1.08384
1.08591
1.08653
1.08338
1.076
1.06539
1.05318
1.0368
1.01982
1.00169
0.985902
0.967645
0.95036
0.935385
0.920682
0.902144
0.892677
0.880219
0.874
0.866064
0.861569
0.855411
0.852434
0.852256
0.848097
0.846747
0.844847
0.84548
0.843208
0.843886
0.842192
0.842673
0.84109
0.841525
0.839977
0.839654
0.838939
0.83966
0.838697
0.839163
0.838682
0.836409
0.836147
0.834513
0.834399
0.835415
0.835076
0.835744
0.836242
0.836343
0.837636
0.837212
0.836776
0.834367
0.833714
0.831328
0.831665
0.830996
0.831116
0.830167
0.830169
0.829215
0.829869
0.828839
0.82905
0.827621
0.827592
0.825977
0.825805
0.826308
0.826034
0.823277