/*--------------------------------*- C++ -*----------------------------------*\
| =========                 |                                                 |
| \\      /  F ield         | OpenFOAM: The Open Source CFD Toolbox           |
|  \\    /   O peration     | Version:  v2006                                 |
|   \\  /    A nd           | Website:  www.openfoam.com                      |
|    \\/     M anipulation  |                                                 |
\*---------------------------------------------------------------------------*/
FoamFile
{
    version     2.0;
    format      ascii;
    class       volVectorField;
    location    "100";
    object      U;
}
// * * * * * * * * * * * * * * * * * * * * * * * * * * * * * * * * * * * * * //

dimensions      [0 1 -1 0 0 0 0];


internalField   nonuniform List<vector> 
93840
(
(0.861429 0.0336491 4.26568e-17)
(0.855869 0.0296152 1.88184e-16)
(0.854618 0.0346559 9.74124e-17)
(0.858523 0.0400959 -2.8442e-16)
(0.850207 0.0360886 3.96391e-16)
(0.854178 0.0379048 -5.93778e-16)
(0.860246 0.0352384 -1.94236e-16)
(0.85958 0.0294689 3.36988e-16)
(0.862484 0.0355863 -5.7082e-16)
(0.857669 0.0272384 -6.27375e-17)
(0.849307 0.030329 8.11819e-18)
(0.846618 0.0242627 3.60301e-17)
(0.840521 0.028472 -2.82508e-16)
(0.840017 0.0194064 2.82473e-16)
(0.82291 0.0225163 -1.1681e-16)
(0.820115 0.0179127 1.3645e-16)
(0.809081 0.0212921 6.73861e-17)
(0.811587 0.0187205 7.66912e-17)
(0.796328 0.0235174 1.06479e-16)
(0.798449 0.0272413 1.1467e-16)
(0.79764 0.0335569 1.34464e-16)
(0.783206 0.0264504 1.27663e-16)
(0.72581 0.0204223 1.31073e-16)
(0.647549 0.0265806 1.19938e-16)
(0.649648 0.0405613 1.10375e-16)
(0.635885 -0.0039305 1.06056e-16)
(0.618089 -0.00139339 1.05797e-16)
(0.629065 0.0245761 1.02114e-16)
(0.632505 -0.00127643 9.32528e-17)
(0.583719 0.00449776 9.02785e-17)
(0.573825 0.00665691 8.50244e-17)
(0.5094 -0.00671613 8.26289e-17)
(0.512862 -0.0212345 8.05486e-17)
(0.532972 -0.0278494 8.21831e-17)
(0.487263 -0.0264086 8.09311e-17)
(0.507454 -0.0275196 8.17232e-17)
(0.472807 -0.0247686 8.09386e-17)
(0.490849 -0.0265048 8.15403e-17)
(0.460444 -0.0222035 8.13272e-17)
(0.475361 -0.0236734 8.15246e-17)
(0.44989 -0.0196611 8.10993e-17)
(0.462435 -0.0204589 8.175e-17)
(0.440772 -0.0172292 8.10815e-17)
(0.452807 -0.017922 8.197e-17)
(0.432734 -0.0153518 8.13145e-17)
(0.441128 -0.0156239 8.19281e-17)
(0.424011 -0.013146 8.1593e-17)
(0.430817 -0.0125719 8.18584e-17)
(0.416601 -0.0106933 8.18985e-17)
(0.420702 -0.0100883 8.19802e-17)
(0.409137 -0.00801189 8.21973e-17)
(0.41218 -0.0075784 8.21141e-17)
(0.401853 -0.00635378 8.24525e-17)
(0.400308 -0.00455291 8.22603e-17)
(0.39422 -0.00139764 8.27775e-17)
(0.395833 -0.000188549 8.26244e-17)
(0.392299 6.63439e-05 8.30793e-17)
(0.389185 0.000519562 8.30531e-17)
(0.383936 0.00120658 8.3483e-17)
(0.380333 0.00396457 8.33946e-17)
(0.378294 0.00529846 8.39675e-17)
(0.375434 0.00625338 8.38926e-17)
(0.370805 0.00847792 8.4494e-17)
(0.371578 0.0104885 8.46445e-17)
(0.368399 0.0116958 8.53116e-17)
(0.368288 0.0133502 8.52913e-17)
(0.364914 0.0152622 8.60713e-17)
(0.367535 0.0165992 8.61733e-17)
(0.364056 0.0178667 8.71564e-17)
(0.365513 0.0195573 8.73318e-17)
(0.363928 0.020954 8.81378e-17)
(0.364842 0.0223675 8.87667e-17)
(0.364573 0.0241565 8.92848e-17)
(0.36541 0.0255138 9.00566e-17)
(0.365974 0.026956 8.93776e-17)
(0.36649 0.0285142 8.97474e-17)
(0.368018 0.0299221 9.07259e-17)
(0.368686 0.0315556 9.08198e-17)
(0.370392 0.0330763 9.1174e-17)
(0.372525 0.0343753 9.08002e-17)
(0.37305 0.0356685 9.06183e-17)
(0.375528 0.0372497 9.08162e-17)
(0.37646 0.0388536 9.07772e-17)
(0.37957 0.0406551 9.07634e-17)
(0.382065 0.0420108 8.97663e-17)
(0.384625 0.0435075 9.02263e-17)
(0.38776 0.0449925 8.95384e-17)
(0.390486 0.0463213 8.8485e-17)
(0.393269 0.0478708 8.82848e-17)
(0.396176 0.0496722 8.72083e-17)
(0.400198 0.0516854 8.88555e-17)
(0.405409 0.0533481 8.67775e-17)
(0.409684 0.0548835 8.62478e-17)
(0.415067 0.0565287 8.51085e-17)
(0.420058 0.0581023 8.66985e-17)
(0.426114 0.0597316 8.603e-17)
(0.43226 0.0611034 8.80049e-17)
(0.438387 0.0625708 8.47148e-17)
(0.445036 0.0640198 8.63794e-17)
(0.452425 0.0656218 8.84379e-17)
(0.460022 0.0668257 8.53833e-17)
(0.467572 0.0680386 8.73098e-17)
(0.474648 0.0700439 8.99152e-17)
(0.489672 0.073666 8.52649e-17)
(0.506966 0.0731349 8.72196e-17)
(0.511955 0.0697715 8.07687e-17)
(0.513897 0.0702786 8.75412e-17)
(0.525034 0.0732493 8.12744e-17)
(0.538322 0.073823 9.10063e-17)
(0.551801 0.0740426 8.39372e-17)
(0.565297 0.0735723 9.01205e-17)
(0.578829 0.0729207 8.18685e-17)
(0.591955 0.0719397 8.7908e-17)
(0.608102 0.0714477 8.16473e-17)
(0.623164 0.0690361 8.84731e-17)
(0.638258 0.0664348 8.49945e-17)
(0.652161 0.0630576 8.59527e-17)
(0.668734 0.0603677 8.44914e-17)
(0.683102 0.0550028 8.56107e-17)
(0.697734 0.0504882 8.41895e-17)
(0.709783 0.043935 8.50272e-17)
(0.72379 0.0391922 8.5592e-17)
(0.731595 0.0300569 8.59261e-17)
(0.741925 0.024359 8.57086e-17)
(0.743601 0.0136264 8.67733e-17)
(0.743703 0.00857008 8.59309e-17)
(0.75141 -0.000272559 8.75306e-17)
(0.742162 -0.00676723 8.68011e-17)
(0.745551 -0.0110235 8.80918e-17)
(0.742327 -0.0197364 8.72478e-17)
(0.739113 -0.0239345 8.82472e-17)
(0.736614 -0.0302935 8.73804e-17)
(0.730768 -0.0335975 8.83217e-17)
(0.729088 -0.0383503 8.69247e-17)
(0.725179 -0.0422531 8.81936e-17)
(0.723009 -0.0471911 8.58364e-17)
(0.717841 -0.050239 8.73691e-17)
(0.71569 -0.0537087 8.60083e-17)
(0.712007 -0.0567331 8.67006e-17)
(0.711358 -0.0598621 8.5297e-17)
(0.708208 -0.0630956 8.60529e-17)
(0.707899 -0.067538 8.42918e-17)
(0.702275 -0.0703311 8.51666e-17)
(0.702092 -0.0739229 8.59256e-17)
(0.698412 -0.0767249 8.58375e-17)
(0.699056 -0.0806795 8.59129e-17)
(0.695561 -0.0836214 8.67952e-17)
(0.694982 -0.0879989 8.63716e-17)
(0.691724 -0.0918211 8.70516e-17)
(0.688855 -0.0960429 8.75738e-17)
(0.686423 -0.0992681 8.66585e-17)
(0.683824 -0.104068 8.78936e-17)
(0.68076 -0.108314 8.72051e-17)
(0.677063 -0.112581 8.82824e-17)
(0.672535 -0.116856 8.80136e-17)
(0.668371 -0.121233 8.8087e-17)
(0.663725 -0.125469 8.75863e-17)
(0.658135 -0.130337 8.82993e-17)
(0.651552 -0.134715 8.73907e-17)
(0.644619 -0.138425 8.86945e-17)
(0.639625 -0.14254 8.8378e-17)
(0.6337 -0.148258 8.96144e-17)
(0.626669 -0.153862 8.85712e-17)
(0.618706 -0.159639 8.94891e-17)
(0.609833 -0.165495 8.85507e-17)
(0.599351 -0.171191 8.9393e-17)
(0.586595 -0.176771 8.90617e-17)
(0.574138 -0.182054 9.03923e-17)
(0.562244 -0.188231 8.85904e-17)
(0.547824 -0.195716 9.0154e-17)
(0.529203 -0.201969 8.89354e-17)
(0.507029 -0.206473 9.01757e-17)
(0.483736 -0.210599 8.89162e-17)
(0.461203 -0.216916 8.89985e-17)
(0.433131 -0.221681 8.90989e-17)
(0.39684 -0.222089 8.85937e-17)
(0.355294 -0.220394 8.914e-17)
(0.302288 -0.21114 8.85657e-17)
(0.245906 -0.190191 8.871e-17)
(0.184863 -0.156896 8.73732e-17)
(0.128628 -0.115658 8.76408e-17)
(0.0220524 0.013537 8.02101e-17)
(0.0073071 0.101681 9.93813e-17)
(0.00490651 0.316165 1.08223e-16)
(0.0972653 0.444915 1.0927e-16)
(0.199071 0.632478 1.08949e-16)
(0.402721 0.698121 1.08134e-16)
(0.564012 0.724441 1.08253e-16)
(0.686452 0.673975 1.07591e-16)
(0.736983 0.646188 1.07503e-16)
(0.846111 0.643577 1.0699e-16)
(0.936951 0.61552 1.06743e-16)
(0.999759 0.579564 1.06206e-16)
(1.04828 0.5413 1.05898e-16)
(1.10201 0.512214 1.05435e-16)
(1.11461 0.475702 1.05125e-16)
(1.13809 0.449101 1.04438e-16)
(1.13905 0.417813 1.04188e-16)
(1.1585 0.397815 1.03448e-16)
(1.15889 0.374315 1.02825e-16)
(1.15803 0.355443 1.02942e-16)
(1.15852 0.337343 1.02076e-16)
(1.15466 0.320271 1.02032e-16)
(1.15306 0.306796 1.01187e-16)
(1.1482 0.292707 1.02088e-16)
(1.14795 0.278415 1.00819e-16)
(1.1438 0.267278 1.01177e-16)
(1.13912 0.257102 1.00194e-16)
(1.13372 0.245889 1.01127e-16)
(1.12934 0.234577 9.98209e-17)
(1.12486 0.225795 1.00006e-16)
(1.1215 0.216843 9.85965e-17)
(1.11672 0.206718 9.9269e-17)
(1.11264 0.196195 9.80716e-17)
(1.10623 0.187411 9.82485e-17)
(1.10024 0.179997 9.70569e-17)
(1.09292 0.172521 9.75898e-17)
(1.08967 0.164399 9.61619e-17)
(1.08174 0.156118 9.62553e-17)
(1.07862 0.149336 9.44167e-17)
(1.08145 0.141857 9.45769e-17)
(1.07587 0.132572 9.27926e-17)
(1.06974 0.126273 9.289e-17)
(1.06258 0.120782 9.14013e-17)
(1.05241 0.115007 9.16904e-17)
(1.04552 0.11028 9.07739e-17)
(1.03614 0.105053 9.05217e-17)
(1.03088 0.100546 8.91959e-17)
(1.02059 0.0953597 8.95416e-17)
(1.01457 0.0912271 8.83265e-17)
(1.00876 0.08639 8.81668e-17)
(1.011 0.0798947 8.69837e-17)
(1.00925 0.0735096 8.77212e-17)
(1.00996 0.0676662 8.69654e-17)
(1.0059 0.0614899 8.73219e-17)
(1.00202 0.0568933 8.59597e-17)
(0.994048 0.0529138 8.64482e-17)
(0.992924 0.0484261 8.57144e-17)
(0.985758 0.0442696 8.59334e-17)
(0.986133 0.0397799 8.5895e-17)
(0.978201 0.0367926 8.59571e-17)
(0.979473 0.031801 8.51766e-17)
(0.971088 0.0263977 8.4794e-17)
(0.973519 0.0216294 8.47585e-17)
(0.965949 0.0172731 8.43601e-17)
(0.968854 0.0127023 8.3975e-17)
(0.963933 0.0102805 8.36536e-17)
(0.970147 0.00192901 8.32419e-17)
(0.951573 4.64813e-05 8.28258e-17)
(0.959134 -0.00260389 8.24758e-17)
(0.964265 -0.0118125 8.1999e-17)
(0.942665 -0.0146822 8.15315e-17)
(0.908404 -0.0169582 8.11241e-17)
(0.745675 -0.0122085 7.99692e-17)
(0.464967 -0.0143513 7.85434e-17)
(0.319751 -0.0120038 7.81402e-17)
(0.342813 -0.0163182 7.93049e-17)
(0.383824 -0.0203845 8.00731e-17)
(0.398907 -0.0235735 8.10709e-17)
(0.415811 -0.0266479 8.01063e-17)
(0.424955 -0.0296165 8.11117e-17)
(0.432983 -0.0322705 8.09334e-17)
(0.436519 -0.0348152 8.23976e-17)
(0.436849 -0.0369152 8.21095e-17)
(0.433513 -0.0388137 8.3609e-17)
(0.428275 -0.040027 8.21619e-17)
(0.422985 -0.041576 8.39631e-17)
(0.414765 -0.0440127 8.23976e-17)
(0.398302 -0.0448836 8.43599e-17)
(0.38382 -0.0420683 8.31618e-17)
(0.381833 -0.0411281 8.36064e-17)
(0.37762 -0.0436352 8.24862e-17)
(0.36269 -0.0454836 8.34488e-17)
(0.344934 -0.0431975 8.1338e-17)
(0.336984 -0.0409664 8.10447e-17)
(0.331146 -0.0412268 7.98774e-17)
(0.32049 -0.0422294 8.06031e-17)
(0.305983 -0.0416092 7.80892e-17)
(0.293145 -0.0402012 7.82026e-17)
(0.281278 -0.0391326 7.80924e-17)
(0.268983 -0.0381145 7.89111e-17)
(0.256557 -0.0370365 8.00573e-17)
(0.243973 -0.0358161 8.00465e-17)
(0.231397 -0.0345463 7.87944e-17)
(0.218787 -0.0331628 7.98259e-17)
(0.206341 -0.0315492 7.71101e-17)
(0.19482 -0.0300547 7.74031e-17)
(0.182945 -0.0285001 7.57969e-17)
(0.171809 -0.0270519 7.90895e-17)
(0.159571 -0.025338 7.64907e-17)
(0.148271 -0.0237631 7.98168e-17)
(0.134971 -0.0217611 7.66924e-17)
(0.122755 -0.0199639 7.47978e-17)
(0.107858 -0.01756 7.63286e-17)
(0.0950207 -0.0155658 7.57436e-17)
(0.0794815 -0.0127784 7.23352e-17)
(0.0650687 -0.0103588 7.11789e-17)
(0.0480339 -0.00653027 6.56288e-17)
(0.0280944 -0.001086 6.26973e-17)
(-0.0107626 0.00480918 1.8955e-17)
(-0.0282169 0.00463247 9.96177e-18)
(-0.0303932 0.00327109 2.52158e-17)
(-0.0268515 0.00192025 1.44375e-17)
(-0.0220861 0.00202339 2.65425e-17)
(-0.0206085 0.00295722 2.08304e-17)
(-0.0223827 0.00370173 2.52747e-17)
(-0.0239286 0.00410895 3.00565e-17)
(-0.0250871 0.00433827 2.13775e-17)
(-0.0249456 0.00383394 2.28804e-17)
(-0.0253632 0.00448667 2.32484e-17)
(-0.0229457 0.00411031 2.73461e-17)
(-0.020639 0.00314123 2.36357e-17)
(-0.0154956 0.00217284 3.29258e-17)
(-0.0161803 0.00298192 3.0853e-17)
(-0.0117184 0.00219987 3.04831e-17)
(-0.012615 0.00301664 3.35893e-17)
(-0.0109194 0.00200678 8.48089e-18)
(-0.00974958 0.00148001 2.36768e-17)
(-0.00837381 0.000883846 1.89903e-17)
(-0.00756339 0.00176564 3.95427e-17)
(-0.00474952 0.000639802 7.62327e-18)
(-0.00307876 0.00076596 5.68285e-17)
(-0.000139958 -0.000486469 2.14781e-17)
(0.000225503 0.00043039 1.61937e-17)
(-0.000836439 0.000325507 3.66325e-17)
(-0.00364295 0.00175095 9.40044e-18)
(-0.00952484 0.00269692 2.5536e-17)
(-0.0166493 0.00599607 3.46503e-17)
(-0.0219076 0.00666375 3.12951e-17)
(-0.0265842 0.00541615 3.95069e-17)
(-0.0230507 0.00298074 3.40494e-17)
(-0.0211453 0.000691851 4.26042e-17)
(-0.00205371 -0.00944579 3.92122e-17)
(0.00582459 -0.0235917 3.943e-17)
(0.0294478 -0.0333811 4.23139e-17)
(0.0598718 -0.0626484 3.95246e-17)
(0.127682 0.00659474 4.93187e-17)
(0.249336 0.0164189 5.96849e-17)
(0.309737 0.0244372 6.94647e-17)
(0.450367 0.0192213 7.49341e-17)
(0.542132 0.0481414 8.77988e-17)
(0.577068 0.00433036 9.66162e-17)
(0.673349 -0.00476764 1.05111e-16)
(0.664597 0.0443927 1.09962e-16)
(0.629621 0.0279888 1.15977e-16)
(0.717645 0.0192579 1.26169e-16)
(0.782632 0.0274021 1.36272e-16)
(0.7992 0.032351 1.19457e-16)
(0.798201 0.0268887 1.12044e-16)
(0.797739 0.0229009 1.25355e-16)
(0.804971 0.019955 1.13177e-16)
(0.808657 0.0220436 1.17884e-16)
(0.819766 0.0182454 3.87643e-17)
(0.825108 0.0227766 1.67512e-16)
(0.833975 0.0212407 -1.32863e-16)
(0.836589 0.029767 3.60468e-16)
(0.845806 0.0244523 1.63795e-16)
(0.8499 0.0303806 1.30662e-16)
(0.857384 0.0275724 -6.89802e-17)
(0.862456 0.0359186 2.66748e-16)
(0.85941 0.0296922 -3.39261e-16)
(0.858857 0.0356883 -2.64507e-16)
(0.85399 0.0381698 3.33719e-16)
(0.850334 0.0363413 -1.0325e-16)
(0.858482 0.0401703 -1.08013e-16)
(0.854565 0.0349186 7.78377e-18)
(0.855866 0.0298951 1.68083e-16)
(0.861433 0.0337785 2.91063e-17)
(0.86143 0.0337521 2.927e-17)
(0.855879 0.0298837 1.71737e-16)
(0.85457 0.0348989 1.53251e-17)
(0.858491 0.0402051 -1.20376e-16)
(0.850201 0.0363476 -7.08546e-17)
(0.853911 0.038186 3.5668e-16)
(0.858942 0.035678 -4.08713e-16)
(0.859839 0.029601 7.00801e-17)
(0.862475 0.0359117 1.78175e-16)
(0.857734 0.0275594 5.88243e-17)
(0.849682 0.0303749 8.76898e-17)
(0.846216 0.0243757 5.14979e-17)
(0.835994 0.0298535 3.44701e-16)
(0.834073 0.0212639 -1.37868e-16)
(0.824719 0.0229341 2.28458e-16)
(0.821225 0.0181905 -7.30821e-18)
(0.808434 0.022163 1.24826e-16)
(0.807204 0.0196954 1.12115e-16)
(0.797477 0.0231875 9.47035e-17)
(0.79915 0.027107 1.10334e-16)
(0.804053 0.031858 1.22867e-16)
(0.800012 0.0277725 1.35747e-16)
(0.755753 0.0221065 1.31728e-16)
(0.677028 0.0281525 1.24971e-16)
(0.679089 0.0413405 1.16452e-16)
(0.646266 0.0038313 1.08806e-16)
(0.608952 0.00653983 1.0862e-16)
(0.605191 0.0278481 1.03826e-16)
(0.59609 -0.000571629 1.00366e-16)
(0.594084 0.00243661 9.91159e-17)
(0.586277 -0.00528838 9.60511e-17)
(0.583989 -0.0231762 9.39024e-17)
(0.569655 -0.000658498 9.42482e-17)
(0.566678 -0.0249999 9.32837e-17)
(0.551685 -0.0153276 9.38901e-17)
(0.548806 -0.0236717 9.29696e-17)
(0.53712 -0.0188554 9.36404e-17)
(0.534492 -0.021721 9.31479e-17)
(0.523318 -0.0191691 9.36657e-17)
(0.522059 -0.0198017 9.2926e-17)
(0.510938 -0.018088 9.34952e-17)
(0.510276 -0.0172215 9.31059e-17)
(0.500122 -0.0159777 9.34609e-17)
(0.501073 -0.0152188 9.32688e-17)
(0.49069 -0.0138833 9.34766e-17)
(0.490458 -0.0137163 9.31803e-17)
(0.481137 -0.0114021 9.36692e-17)
(0.480952 -0.0113414 9.32469e-17)
(0.472739 -0.00891526 9.38229e-17)
(0.471065 -0.00883071 9.34508e-17)
(0.46477 -0.00620632 9.39439e-17)
(0.462545 -0.00635235 9.358e-17)
(0.456726 -0.00421525 9.41995e-17)
(0.452772 -0.00332622 9.38197e-17)
(0.449047 0.000153675 9.44101e-17)
(0.447516 0.00067472 9.41795e-17)
(0.444962 0.00198358 9.47722e-17)
(0.440813 0.00231041 9.46528e-17)
(0.437208 0.00319043 9.50773e-17)
(0.433173 0.00573522 9.50328e-17)
(0.431239 0.00712939 9.55825e-17)
(0.427936 0.00836964 9.55608e-17)
(0.4245 0.0104645 9.61255e-17)
(0.424273 0.0126226 9.61502e-17)
(0.421691 0.0138894 9.67759e-17)
(0.421242 0.0157851 9.68859e-17)
(0.418409 0.0175549 9.75309e-17)
(0.420482 0.0193135 9.75265e-17)
(0.417497 0.0207272 9.84085e-17)
(0.41895 0.0224757 9.83114e-17)
(0.417413 0.0240099 9.89866e-17)
(0.418614 0.0256711 9.88352e-17)
(0.418433 0.0276243 9.9659e-17)
(0.419401 0.0291475 9.9564e-17)
(0.420199 0.030771 1.00247e-16)
(0.420828 0.0325037 1.00649e-16)
(0.422742 0.0341198 1.00351e-16)
(0.423483 0.0359375 1.00677e-16)
(0.425562 0.0376253 1.01227e-16)
(0.427801 0.0391971 1.00856e-16)
(0.428722 0.0406872 1.01259e-16)
(0.431613 0.0424921 1.00899e-16)
(0.432892 0.0442925 1.01107e-16)
(0.436441 0.0462926 9.99473e-17)
(0.439223 0.0478937 1.00259e-16)
(0.442313 0.0495738 9.96193e-17)
(0.445855 0.0512983 9.93091e-17)
(0.449056 0.0528722 9.91585e-17)
(0.452522 0.0546184 9.85059e-17)
(0.456058 0.0566241 9.8092e-17)
(0.460745 0.0587879 9.77165e-17)
(0.466564 0.0606943 9.52336e-17)
(0.471485 0.0624671 9.71469e-17)
(0.477682 0.0643191 9.58353e-17)
(0.483396 0.0661357 9.72983e-17)
(0.490284 0.0679695 9.59794e-17)
(0.497222 0.0695541 9.62904e-17)
(0.504258 0.0712263 9.66151e-17)
(0.511882 0.0728467 9.64783e-17)
(0.520244 0.0746089 9.4688e-17)
(0.528837 0.0759512 9.72257e-17)
(0.537651 0.0773398 9.69688e-17)
(0.54621 0.0793041 9.34488e-17)
(0.562165 0.0829784 9.47657e-17)
(0.579448 0.0826841 9.4883e-17)
(0.585458 0.0794585 9.51194e-17)
(0.589475 0.0799845 9.75565e-17)
(0.60206 0.0827944 9.52533e-17)
(0.616374 0.0832958 9.77618e-17)
(0.631067 0.0834426 9.41994e-17)
(0.645727 0.0828262 9.8679e-17)
(0.660485 0.0819996 9.3634e-17)
(0.674907 0.0806834 9.80746e-17)
(0.692122 0.0800053 9.39309e-17)
(0.708005 0.0770972 9.79636e-17)
(0.724025 0.0741587 9.45445e-17)
(0.738817 0.0701947 9.71544e-17)
(0.756002 0.0668817 9.53001e-17)
(0.770638 0.0610123 9.66694e-17)
(0.785611 0.0556657 9.5415e-17)
(0.797676 0.0485515 9.72939e-17)
(0.811538 0.0426815 9.49518e-17)
(0.818784 0.0333076 9.70695e-17)
(0.828665 0.0264953 9.58032e-17)
(0.829608 0.0150889 9.74585e-17)
(0.829857 0.00912197 9.6787e-17)
(0.836262 -0.000367927 9.83411e-17)
(0.827003 -0.00791307 9.75193e-17)
(0.829951 -0.0131031 9.87645e-17)
(0.825613 -0.0221905 9.77964e-17)
(0.822321 -0.0270102 9.8728e-17)
(0.818935 -0.0337243 9.75755e-17)
(0.812906 -0.0378455 9.83997e-17)
(0.810532 -0.0429627 9.71584e-17)
(0.805984 -0.0475248 9.79152e-17)
(0.803243 -0.0529263 9.68632e-17)
(0.797662 -0.0564222 9.74874e-17)
(0.795012 -0.0604634 9.60893e-17)
(0.790857 -0.0638365 9.70032e-17)
(0.78958 -0.0675835 9.54518e-17)
(0.785624 -0.071354 9.63168e-17)
(0.784682 -0.0755506 9.55087e-17)
(0.778496 -0.0792011 9.61639e-17)
(0.777995 -0.0821744 9.51565e-17)
(0.77343 -0.0859431 9.60354e-17)
(0.773552 -0.0895915 9.51924e-17)
(0.768989 -0.0936749 9.61802e-17)
(0.767771 -0.0977712 9.53598e-17)
(0.763319 -0.102277 9.70577e-17)
(0.760147 -0.105931 9.58237e-17)
(0.75645 -0.110482 9.74223e-17)
(0.753122 -0.114316 9.6607e-17)
(0.748938 -0.119048 9.79684e-17)
(0.744337 -0.12376 9.72454e-17)
(0.738678 -0.127819 9.79524e-17)
(0.733669 -0.13194 9.78509e-17)
(0.727562 -0.136766 9.80974e-17)
(0.720829 -0.141328 9.82421e-17)
(0.712985 -0.146216 9.88734e-17)
(0.704883 -0.14998 9.84091e-17)
(0.697818 -0.153616 9.91311e-17)
(0.689671 -0.158495 9.91368e-17)
(0.68025 -0.164098 9.95271e-17)
(0.66965 -0.169303 9.90947e-17)
(0.657689 -0.174303 9.89638e-17)
(0.643652 -0.179238 9.8546e-17)
(0.627791 -0.183275 9.88491e-17)
(0.612194 -0.186942 9.71951e-17)
(0.595733 -0.190929 9.82465e-17)
(0.575871 -0.195838 9.48447e-17)
(0.552305 -0.199801 9.65151e-17)
(0.527019 -0.20228 9.37174e-17)
(0.500105 -0.201963 9.46419e-17)
(0.469979 -0.20102 9.16499e-17)
(0.433469 -0.201087 9.14258e-17)
(0.394092 -0.197867 8.95715e-17)
(0.347716 -0.191756 8.83448e-17)
(0.299774 -0.179622 8.6845e-17)
(0.247603 -0.157074 8.7129e-17)
(0.192391 -0.117475 8.47522e-17)
(0.141203 -0.0653067 8.78187e-17)
(0.085568 0.0200063 8.14348e-17)
(0.0646635 0.137041 1.09037e-16)
(0.0609602 0.255676 1.15758e-16)
(0.138651 0.364347 1.11402e-16)
(0.260472 0.518784 1.074e-16)
(0.426439 0.595845 1.05166e-16)
(0.575171 0.639553 1.03589e-16)
(0.702156 0.627016 1.04277e-16)
(0.769725 0.621809 1.03827e-16)
(0.875236 0.629651 1.04624e-16)
(0.960202 0.608998 1.04342e-16)
(1.03148 0.578149 1.0546e-16)
(1.08745 0.552162 1.05498e-16)
(1.15447 0.52861 1.06924e-16)
(1.17866 0.495173 1.06813e-16)
(1.21039 0.471799 1.07833e-16)
(1.21998 0.443597 1.07501e-16)
(1.24434 0.426739 1.08572e-16)
(1.25229 0.402331 1.08144e-16)
(1.25571 0.384568 1.09239e-16)
(1.25942 0.368894 1.08277e-16)
(1.25916 0.351807 1.08979e-16)
(1.26069 0.336643 1.08069e-16)
(1.25762 0.320583 1.08864e-16)
(1.25779 0.309001 1.08109e-16)
(1.25557 0.29722 1.08519e-16)
(1.25233 0.284513 1.07735e-16)
(1.24753 0.272081 1.08348e-16)
(1.24345 0.261167 1.07645e-16)
(1.23964 0.25044 1.07841e-16)
(1.2366 0.240712 1.06957e-16)
(1.23165 0.230075 1.07282e-16)
(1.22802 0.220425 1.06389e-16)
(1.2226 0.2096 1.06339e-16)
(1.21761 0.20143 1.05392e-16)
(1.21048 0.192933 1.05286e-16)
(1.20703 0.185152 1.04168e-16)
(1.19995 0.17607 1.04301e-16)
(1.19669 0.168199 1.02698e-16)
(1.199 0.158598 1.0259e-16)
(1.19433 0.150566 1.01297e-16)
(1.18885 0.143666 1.01534e-16)
(1.18277 0.136504 1.0036e-16)
(1.17316 0.130048 1.0065e-16)
(1.16677 0.124787 9.86199e-17)
(1.15738 0.118959 9.93164e-17)
(1.15235 0.113891 9.7178e-17)
(1.14225 0.108124 9.74139e-17)
(1.13623 0.103454 9.58261e-17)
(1.12964 0.0981165 9.66202e-17)
(1.13108 0.0900581 9.5507e-17)
(1.12899 0.0838332 9.61619e-17)
(1.1297 0.0762263 9.54026e-17)
(1.12577 0.0705965 9.50838e-17)
(1.12249 0.0655158 9.49333e-17)
(1.11458 0.060359 9.50122e-17)
(1.11342 0.0558511 9.46083e-17)
(1.10613 0.0512424 9.4706e-17)
(1.10657 0.0463514 9.44907e-17)
(1.09857 0.0408717 9.41257e-17)
(1.09961 0.035706 9.41858e-17)
(1.09101 0.0317804 9.38863e-17)
(1.09347 0.0252269 9.3665e-17)
(1.08538 0.0207586 9.32071e-17)
(1.08875 0.0151878 9.28969e-17)
(1.08212 0.0104125 9.25821e-17)
(1.08988 0.00282137 9.2174e-17)
(1.07032 0.00156348 9.17276e-17)
(1.0794 -0.00340294 9.14335e-17)
(1.07857 -0.0121905 9.08104e-17)
(1.06862 -0.0154939 9.04669e-17)
(1.02261 -0.0150815 8.97876e-17)
(0.863035 -0.00408958 8.81509e-17)
(0.600467 0.000926903 8.58636e-17)
(0.44296 -0.00897916 8.44708e-17)
(0.450917 -0.0244775 8.54053e-17)
(0.481706 -0.0287137 8.63929e-17)
(0.490219 -0.0309781 8.63351e-17)
(0.502001 -0.0339595 8.74774e-17)
(0.507735 -0.0367248 8.75051e-17)
(0.513155 -0.0392655 8.78964e-17)
(0.514805 -0.041653 8.73511e-17)
(0.513564 -0.0435942 8.70577e-17)
(0.508924 -0.0454022 8.7322e-17)
(0.502345 -0.0466296 8.82126e-17)
(0.495682 -0.0482717 8.7638e-17)
(0.486344 -0.0505045 8.84928e-17)
(0.469286 -0.0513346 8.86047e-17)
(0.45343 -0.04883 8.80767e-17)
(0.449191 -0.0481341 8.89808e-17)
(0.4435 -0.0503168 8.89014e-17)
(0.428093 -0.0517062 8.94025e-17)
(0.409548 -0.0495625 8.89199e-17)
(0.399708 -0.0476163 9.01712e-17)
(0.392123 -0.0477546 8.7348e-17)
(0.380389 -0.0484393 8.69717e-17)
(0.364948 -0.0476685 8.6912e-17)
(0.350811 -0.0462384 8.65745e-17)
(0.337539 -0.0450431 8.70797e-17)
(0.323908 -0.0438349 8.50841e-17)
(0.310179 -0.0425816 8.46699e-17)
(0.296321 -0.0411938 8.59312e-17)
(0.282487 -0.0397687 8.52678e-17)
(0.268664 -0.0382106 8.45772e-17)
(0.25503 -0.0365114 8.54609e-17)
(0.24227 -0.0348463 8.4807e-17)
(0.229267 -0.0331771 8.34628e-17)
(0.217001 -0.0314978 8.33389e-17)
(0.203734 -0.029626 8.3338e-17)
(0.191427 -0.0276813 8.35104e-17)
(0.177216 -0.0253929 8.23255e-17)
(0.164333 -0.0231223 8.31799e-17)
(0.148671 -0.0204914 8.21319e-17)
(0.135392 -0.0181036 8.31784e-17)
(0.118823 -0.0152909 7.8844e-17)
(0.106072 -0.0127086 8.0624e-17)
(0.0885897 -0.00932061 6.97585e-17)
(0.07917 -0.00463863 7.65488e-17)
(0.0617334 -0.00105401 5.69562e-17)
(0.0449412 -0.00292027 5.11485e-17)
(0.0272135 -0.00320841 4.07323e-17)
(0.013599 -0.0016834 3.86534e-17)
(-0.000266431 0.000609495 2.25417e-17)
(-0.00571176 0.00213384 2.55876e-17)
(-0.011497 0.00340239 3.4136e-17)
(-0.0136286 0.00358881 1.47186e-17)
(-0.0180931 0.00407944 2.15525e-17)
(-0.0191354 0.00431032 2.46022e-17)
(-0.0231961 0.00424918 2.28092e-17)
(-0.0242949 0.00315307 2.15503e-17)
(-0.0251748 0.0029726 2.38153e-17)
(-0.0236562 0.00359443 1.94695e-17)
(-0.0224685 0.00280163 2.45175e-17)
(-0.0209186 0.00272116 1.94406e-17)
(-0.0201701 0.00302741 2.26946e-17)
(-0.0191911 0.00285798 2.16384e-17)
(-0.0188365 0.00203408 2.55766e-17)
(-0.0175857 0.00230685 1.93426e-17)
(-0.0168381 0.00149542 2.79964e-17)
(-0.0150356 0.0013013 2.11816e-17)
(-0.0144673 0.000547984 2.75932e-17)
(-0.0120869 0.00106661 2.23379e-17)
(-0.0118115 0.00100548 2.72151e-17)
(-0.00999391 0.00367378 2.80931e-17)
(-0.0144471 0.00800582 2.80136e-17)
(-0.0170835 0.0116896 3.54941e-17)
(-0.0234913 0.012371 3.65907e-17)
(-0.025896 0.0108111 3.89816e-17)
(-0.0296079 0.00742696 3.90866e-17)
(-0.0311733 0.00368253 3.90428e-17)
(-0.0325253 -0.00330248 3.93961e-17)
(-0.024916 -0.0100604 4.06524e-17)
(-0.0312464 -0.0207049 4.17505e-17)
(-0.0192717 -0.0287097 4.34137e-17)
(-0.0262525 -0.0354773 4.45443e-17)
(-0.00676253 -0.0447236 4.68967e-17)
(0.0351151 -0.017566 5.17004e-17)
(0.10841 -0.0143215 5.75174e-17)
(0.201386 -0.00511243 5.32515e-17)
(0.335197 0.0410298 7.58121e-17)
(0.379337 0.00932222 7.89089e-17)
(0.576402 -0.00470874 8.83326e-17)
(0.635802 0.0533142 1.07257e-16)
(0.61521 0.0260764 1.09745e-16)
(0.67448 0.0194312 1.24648e-16)
(0.762882 0.0261053 1.27651e-16)
(0.793265 0.0340994 1.37345e-16)
(0.796856 0.0272502 1.15368e-16)
(0.796864 0.0232714 1.34053e-16)
(0.811224 0.0186108 8.69065e-17)
(0.808492 0.0212849 5.96789e-17)
(0.820343 0.01784 1.42213e-16)
(0.821974 0.0227631 -8.03105e-17)
(0.839795 0.0194333 2.80628e-16)
(0.840417 0.0284081 -1.10112e-16)
(0.846391 0.024301 4.08506e-17)
(0.849404 0.0302332 3.79625e-18)
(0.857351 0.0274225 -1.98507e-16)
(0.862507 0.0356158 -1.42118e-16)
(0.859582 0.0294475 2.53313e-16)
(0.860273 0.0352261 -3.95209e-16)
(0.854155 0.0378917 -2.66212e-16)
(0.850446 0.0360594 4.14303e-16)
(0.858542 0.0400787 -3.72363e-16)
(0.854619 0.0347365 8.50978e-17)
(0.855857 0.029665 1.87429e-16)
(0.861434 0.0336377 4.2763e-17)
(0.861439 0.033839 3.69591e-17)
(0.855871 0.0297775 1.81009e-16)
(0.85461 0.034532 8.46243e-17)
(0.858523 0.0400773 -2.38669e-16)
(0.850412 0.0360619 3.93713e-16)
(0.853664 0.037957 -3.53553e-16)
(0.859428 0.0353281 -3.2802e-16)
(0.859648 0.0294023 4.77657e-17)
(0.862603 0.0355992 -4.00331e-16)
(0.857487 0.0273012 -2.17887e-16)
(0.849917 0.0302751 -8.06149e-17)
(0.846456 0.0243368 -7.29063e-18)
(0.839795 0.0285422 -1.0474e-16)
(0.839096 0.0196949 2.04868e-16)
(0.823563 0.0222902 -2.91316e-18)
(0.818094 0.018442 1.03568e-16)
(0.810061 0.0213437 1.04135e-16)
(0.810503 0.0191526 5.99959e-17)
(0.796519 0.0236634 1.36789e-16)
(0.799153 0.0272589 1.08494e-16)
(0.799749 0.0328292 1.31852e-16)
(0.799574 0.0264602 1.25993e-16)
(0.774038 0.0228731 1.38626e-16)
(0.711943 0.0251814 1.28383e-16)
(0.702393 0.0367584 1.22984e-16)
(0.695055 -0.0020604 1.15151e-16)
(0.629327 0.0106505 1.15539e-16)
(0.652802 0.0239958 1.09888e-16)
(0.62424 0.00396223 1.0776e-16)
(0.6276 0.00563978 1.05296e-16)
(0.609349 0.00129145 1.05484e-16)
(0.607664 -0.00592227 1.03717e-16)
(0.6071 -0.0107531 1.02765e-16)
(0.596637 -0.0152048 1.02784e-16)
(0.586453 -0.0161382 1.02243e-16)
(0.586262 -0.0186603 1.02244e-16)
(0.57124 -0.0171566 1.02149e-16)
(0.573478 -0.0191338 1.02094e-16)
(0.559321 -0.0169688 1.01979e-16)
(0.561094 -0.0183123 1.0181e-16)
(0.548403 -0.0163393 1.01938e-16)
(0.549225 -0.0163723 1.01805e-16)
(0.538526 -0.014354 1.01977e-16)
(0.539906 -0.014691 1.01749e-16)
(0.52954 -0.0124533 1.01988e-16)
(0.529237 -0.0127952 1.01717e-16)
(0.520546 -0.0104641 1.02124e-16)
(0.519747 -0.0105471 1.0169e-16)
(0.512529 -0.00793705 1.02223e-16)
(0.510162 -0.00788872 1.01843e-16)
(0.504737 -0.00562745 1.02274e-16)
(0.501683 -0.00551927 1.01948e-16)
(0.496963 -0.00308823 1.02515e-16)
(0.492372 -0.00212564 1.02059e-16)
(0.489345 0.000762707 1.02686e-16)
(0.486916 0.00132047 1.02432e-16)
(0.485322 0.00277954 1.03006e-16)
(0.480404 0.00357252 1.02796e-16)
(0.477856 0.00459481 1.03236e-16)
(0.473441 0.00706932 1.03167e-16)
(0.471909 0.00823281 1.036e-16)
(0.468398 0.0100147 1.03684e-16)
(0.465671 0.0118292 1.03967e-16)
(0.464788 0.014176 1.04152e-16)
(0.462898 0.0154156 1.04517e-16)
(0.461975 0.0176171 1.04668e-16)
(0.459841 0.0194723 1.05161e-16)
(0.461389 0.0211742 1.05207e-16)
(0.459039 0.0229306 1.05693e-16)
(0.460186 0.024778 1.05711e-16)
(0.459039 0.0264871 1.06352e-16)
(0.460326 0.0280193 1.06157e-16)
(0.460254 0.0303191 1.06728e-16)
(0.461386 0.0319355 1.06703e-16)
(0.462313 0.0337873 1.07347e-16)
(0.463166 0.0355853 1.07311e-16)
(0.465312 0.0373598 1.07351e-16)
(0.466163 0.0394285 1.07637e-16)
(0.468619 0.0411251 1.07235e-16)
(0.470937 0.0429797 1.07375e-16)
(0.472338 0.0446023 1.07293e-16)
(0.475474 0.0465794 1.07048e-16)
(0.477173 0.0485231 1.07142e-16)
(0.481064 0.0506489 1.0611e-16)
(0.484162 0.0524603 1.06334e-16)
(0.48777 0.0543027 1.05651e-16)
(0.491702 0.056244 1.06173e-16)
(0.495413 0.0579901 1.05456e-16)
(0.499496 0.0599751 1.04733e-16)
(0.503564 0.062183 1.04538e-16)
(0.508859 0.0645139 1.03695e-16)
(0.515208 0.0666163 1.0477e-16)
(0.520784 0.0685823 1.04172e-16)
(0.527664 0.0706013 1.03428e-16)
(0.534057 0.0725792 1.03072e-16)
(0.541664 0.074551 1.03279e-16)
(0.549353 0.076319 1.02417e-16)
(0.557177 0.0781576 1.04101e-16)
(0.565663 0.0799084 1.02119e-16)
(0.574824 0.0818622 1.02004e-16)
(0.584286 0.0833655 1.02272e-16)
(0.594066 0.0849526 1.02182e-16)
(0.603608 0.086948 1.03906e-16)
(0.620038 0.0904808 1.04137e-16)
(0.637522 0.090179 1.04068e-16)
(0.64483 0.0872176 1.04959e-16)
(0.650424 0.0876986 1.04238e-16)
(0.663781 0.0905364 1.04792e-16)
(0.678772 0.0909192 1.03297e-16)
(0.694244 0.0910024 1.02556e-16)
(0.709554 0.0902249 1.04637e-16)
(0.725021 0.0892526 1.02057e-16)
(0.740041 0.0876744 1.04072e-16)
(0.75761 0.0866606 1.02488e-16)
(0.773614 0.0834342 1.03207e-16)
(0.789878 0.0800148 1.02755e-16)
(0.804655 0.0755139 1.04172e-16)
(0.821631 0.0718754 1.02541e-16)
(0.835781 0.0652072 1.04991e-16)
(0.850314 0.0595542 1.02541e-16)
(0.861704 0.0514294 1.04554e-16)
(0.874795 0.0456064 1.03215e-16)
(0.881177 0.0347059 1.0501e-16)
(0.890292 0.0279074 1.04104e-16)
(0.890474 0.0156489 1.05661e-16)
(0.890584 0.00925861 1.05009e-16)
(0.895532 -0.000987471 1.06375e-16)
(0.886588 -0.00849691 1.05382e-16)
(0.888517 -0.0140577 1.06438e-16)
(0.883647 -0.0237319 1.05544e-16)
(0.879984 -0.0289138 1.06689e-16)
(0.87581 -0.0362185 1.0524e-16)
(0.86952 -0.0402365 1.06067e-16)
(0.866306 -0.0458944 1.04992e-16)
(0.861209 -0.0505125 1.0539e-16)
(0.857772 -0.0562212 1.04251e-16)
(0.851642 -0.0598993 1.04617e-16)
(0.848269 -0.0640566 1.03199e-16)
(0.84338 -0.0675748 1.03579e-16)
(0.841158 -0.0712627 1.02645e-16)
(0.836331 -0.075092 1.03131e-16)
(0.834294 -0.0799627 1.02205e-16)