/*--------------------------------*- C++ -*----------------------------------*\
| =========                 |                                                 |
| \\      /  F ield         | OpenFOAM: The Open Source CFD Toolbox           |
|  \\    /   O peration     | Version:  v2006                                 |
|   \\  /    A nd           | Website:  www.openfoam.com                      |
|    \\/     M anipulation  |                                                 |
\*---------------------------------------------------------------------------*/
FoamFile
{
    version     2.0;
    format      ascii;
    class       volScalarField;
    location    "25";
    object      alphat;
}
// * * * * * * * * * * * * * * * * * * * * * * * * * * * * * * * * * * * * * //

dimensions      [1 -1 -1 0 0 0 0];


internalField   nonuniform List<scalar> 
93840
(
2.79114e-08
2.79028e-08
2.79169e-08
2.79226e-08
2.79568e-08
2.79816e-08
2.8153e-08
2.81973e-08
2.80267e-08
2.83102e-08
2.83942e-08
2.84981e-08
2.86612e-08
2.92553e-08
2.94993e-08
2.95178e-08
2.9923e-08
3.21509e-08
3.57413e-08
4.23831e-08
4.45626e-08
3.02492e-08
5.76149e-08
4.18512e-08
2.62699e-08
1.92511e-11
1.61755e-09
4.0697e-07
2.31051e-06
5.76813e-06
8.31706e-06
9.01913e-06
9.29425e-06
8.21698e-06
9.33164e-06
8.0011e-06
8.22723e-06
7.74683e-06
7.48737e-06
7.14778e-06
6.73346e-06
6.43625e-06
6.24604e-06
5.84982e-06
5.59385e-06
5.31824e-06
5.07345e-06
4.92795e-06
4.83069e-06
4.63514e-06
4.5031e-06
4.32838e-06
4.12221e-06
3.99617e-06
3.86373e-06
3.61545e-06
3.48981e-06
3.42149e-06
3.30894e-06
3.32569e-06
3.57499e-06
3.40414e-06
3.3782e-06
3.21226e-06
2.87641e-06
2.89868e-06
2.8179e-06
2.68376e-06
2.79108e-06
2.85988e-06
2.68324e-06
2.37125e-06
2.25793e-06
2.02822e-06
2.07978e-06
2.0548e-06
1.98146e-06
2.15123e-06
2.01539e-06
2.05697e-06
1.84135e-06
1.79575e-06
2.18565e-06
2.38924e-06
2.33943e-06
2.24744e-06
2.44487e-06
2.71092e-06
2.60136e-06
2.54934e-06
2.70441e-06
2.65059e-06
2.84107e-06
3.34861e-06
3.4145e-06
3.43675e-06
3.69954e-06
4.19656e-06
4.27351e-06
4.6471e-06
5.69326e-06
6.58643e-06
7.68416e-06
8.74143e-06
9.40368e-06
9.90309e-06
1.0364e-05
1.09357e-05
1.14452e-05
1.19615e-05
1.23683e-05
1.28031e-05
1.31907e-05
1.35895e-05
1.39682e-05
1.43034e-05
1.46011e-05
1.48922e-05
1.5145e-05
1.54168e-05
1.56707e-05
1.59028e-05
1.60808e-05
1.62642e-05
1.63612e-05
1.64875e-05
1.66099e-05
1.66144e-05
1.67709e-05
1.68217e-05
1.6888e-05
1.69869e-05
1.704e-05
1.71703e-05
1.72322e-05
1.73118e-05
1.73612e-05
1.74661e-05
1.75202e-05
1.76146e-05
1.76933e-05
1.77472e-05
1.77971e-05
1.78696e-05
1.79169e-05
1.79826e-05
1.80364e-05
1.80788e-05
1.81107e-05
1.81366e-05
1.81673e-05
1.81819e-05
1.81931e-05
1.81854e-05
1.81797e-05
1.81512e-05
1.81159e-05
1.80665e-05
1.79885e-05
1.79245e-05
1.78558e-05
1.77644e-05
1.76384e-05
1.74942e-05
1.73247e-05
1.71153e-05
1.68514e-05
1.64791e-05
1.58755e-05
1.48888e-05
1.36397e-05
1.26123e-05
1.12306e-05
6.84826e-06
2.87499e-07
3.6825e-06
7.71273e-06
3.04293e-06
9.08913e-09
1.1087e-07
7.77035e-07
4.96319e-07
3.7798e-07
6.6132e-08
8.55212e-08
1.43995e-10
5.29829e-09
2.61624e-06
2.99177e-06
6.99841e-08
4.79616e-06
1.39228e-05
1.53015e-05
1.38984e-05
1.52397e-05
1.73019e-05
1.85195e-05
1.88735e-05
1.89647e-05
1.8895e-05
1.88905e-05
1.8765e-05
1.8654e-05
1.85078e-05
1.83896e-05
1.82258e-05
1.81088e-05
1.79721e-05
1.79211e-05
1.77847e-05
1.77293e-05
1.75712e-05
1.7566e-05
1.74634e-05
1.74478e-05
1.73255e-05
1.72691e-05
1.71404e-05
1.70539e-05
1.68599e-05
1.67719e-05
1.66179e-05
1.65338e-05
1.63418e-05
1.62387e-05
1.60392e-05
1.59056e-05
1.56866e-05
1.55369e-05
1.53544e-05
1.5218e-05
1.50135e-05
1.48767e-05
1.46503e-05
1.45576e-05
1.43644e-05
1.42164e-05
1.388e-05
1.34852e-05
1.34807e-05
1.35798e-05
1.33074e-05
1.30896e-05
1.29027e-05
1.27664e-05
1.26215e-05
1.25216e-05
1.24402e-05
1.21471e-05
1.19395e-05
1.17432e-05
1.13331e-05
1.11298e-05
1.09553e-05
1.05912e-05
1.0327e-05
9.8398e-06
9.14332e-06
8.35304e-06
7.04722e-06
6.05825e-06
5.10955e-06
3.76616e-06
2.90771e-06
2.58525e-06
2.13749e-06
1.44914e-06
1.19614e-06
1.19946e-06
8.6542e-07
9.1732e-07
1.05238e-06
1.11075e-06
1.52839e-06
1.47929e-06
1.05067e-06
1.25005e-06
1.30354e-06
1.55519e-06
1.43757e-06
1.75528e-06
2.087e-06
2.10331e-06
2.00641e-06
1.98658e-06
2.11164e-06
2.37859e-06
2.54361e-06
2.56594e-06
2.64384e-06
2.69089e-06
2.76158e-06
3.33401e-06
3.94422e-06
4.64477e-06
4.59138e-06
4.36234e-06
4.58438e-06
4.33993e-06
4.33656e-06
4.51615e-06
4.17631e-06
3.63461e-06
3.37378e-06
3.4369e-06
3.35962e-06
3.09374e-06
3.69072e-06
4.00534e-06
4.08609e-06
3.88928e-06
3.38323e-06
3.62486e-06
3.79925e-06
4.33856e-06
4.39632e-06
4.32401e-06
3.50438e-06
2.89511e-06
2.57851e-06
2.82027e-06
3.32014e-06
4.21738e-06
4.23719e-06
4.74132e-06
4.43742e-06
4.6464e-06
4.34421e-06
4.39443e-06
4.18826e-06
4.46755e-06
4.18358e-06
4.89993e-06
4.0675e-06
5.085e-06
2.9671e-06
6.3133e-06
8.79986e-06
9.0699e-06
8.47221e-06
6.3973e-06
1.63683e-06
1.73887e-08
8.06117e-09
1.16951e-08
1.49104e-08
1.75218e-08
4.62271e-08
3.91731e-08
3.5848e-08
3.23918e-08
3.01233e-08
2.96147e-08
2.9555e-08
2.92703e-08
2.86473e-08
2.85142e-08
2.85241e-08
2.82308e-08
2.81343e-08
2.81051e-08
2.79539e-08
2.79527e-08
2.79161e-08
2.7946e-08
2.79272e-08
2.79054e-08
2.79084e-08
2.79106e-08
2.79188e-08
2.7928e-08
2.79492e-08
2.79165e-08
2.79516e-08
2.79155e-08
2.81246e-08
2.81452e-08
2.82922e-08
2.84648e-08
2.85071e-08
2.86762e-08
2.9286e-08
2.95096e-08
2.94811e-08
2.97956e-08
3.19174e-08
3.39113e-08
3.64676e-08
3.39459e-08
4.4423e-08
1.14469e-08
1.05661e-08
1.76165e-08
2.15539e-07
2.05222e-07
5.35465e-08
4.21053e-07
1.93469e-06
3.6888e-06
4.77772e-06
5.56778e-06
5.21736e-06
5.97533e-06
5.63757e-06
6.03468e-06
5.87528e-06
6.4895e-06
5.77472e-06
5.87971e-06
5.74079e-06
6.71224e-06
6.03986e-06
5.9982e-06
6.17655e-06
5.78716e-06
6.0756e-06
6.3155e-06
5.48022e-06
5.87301e-06
5.79786e-06
6.13312e-06
5.46264e-06
5.92755e-06
5.56183e-06
5.46404e-06
5.35822e-06
5.2367e-06
5.23037e-06
5.18262e-06
5.26505e-06
5.07384e-06
5.06988e-06
5.17682e-06
5.12367e-06
5.14059e-06
5.10038e-06
5.18652e-06
5.14642e-06
5.03337e-06
4.95445e-06
4.96145e-06
4.88758e-06
4.83959e-06
4.56566e-06
4.63144e-06
4.60031e-06
4.64699e-06
4.65601e-06
4.84736e-06
5.41994e-06
5.49654e-06
5.48232e-06
5.15839e-06
4.75843e-06
5.08583e-06
5.11626e-06
5.44215e-06
5.37187e-06
5.35198e-06
5.48025e-06
5.50817e-06
5.21452e-06
4.88053e-06
4.95115e-06
4.99801e-06
5.16445e-06
5.4545e-06
5.09696e-06
5.82521e-06
6.67731e-06
7.15865e-06
7.67065e-06
8.20686e-06
9.03235e-06
9.64573e-06
1.03993e-05
1.09461e-05
1.15132e-05
1.19913e-05
1.245e-05
1.28911e-05
1.32606e-05
1.35838e-05
1.38702e-05
1.40568e-05
1.41537e-05
1.42217e-05
1.42899e-05
1.43224e-05
1.43384e-05
1.43613e-05
1.43581e-05
1.43115e-05
1.43684e-05
1.42429e-05
1.4342e-05
1.42927e-05
1.42709e-05
1.43521e-05
1.434e-05
1.44333e-05
1.44309e-05
1.44622e-05
1.44901e-05
1.45394e-05
1.45848e-05
1.46096e-05
1.46347e-05
1.46286e-05
1.46383e-05
1.46463e-05
1.46554e-05
1.46193e-05
1.4597e-05
1.4529e-05
1.44695e-05
1.43775e-05
1.43025e-05
1.41778e-05
1.40426e-05
1.38719e-05
1.36853e-05
1.34607e-05
1.31976e-05
1.28744e-05
1.24939e-05
1.20264e-05
1.14597e-05
1.07423e-05
9.88546e-06
8.93992e-06
7.94315e-06
6.93525e-06
5.93595e-06
4.88551e-06
3.68474e-06
2.36104e-06
1.17715e-06
6.69505e-07
8.54711e-07
7.07779e-07
4.76258e-08
3.69702e-08
2.60105e-09
4.57509e-10
5.0402e-11
1.46762e-07
1.23008e-07
2.95437e-09
6.41862e-11
2.69875e-09
1.52874e-07
6.81864e-08
1.49607e-07
4.41701e-09
6.76002e-08
1.59241e-07
6.56131e-09
9.40878e-10
1.96748e-06
2.2078e-06
3.53923e-07
9.93537e-07
3.46774e-06
4.98582e-06
5.19041e-06
5.73576e-06
6.81134e-06
7.92351e-06
8.62502e-06
9.222e-06
9.76401e-06
1.03472e-05
1.08226e-05
1.1387e-05
1.1875e-05
1.24131e-05
1.27989e-05
1.31699e-05
1.33686e-05
1.36499e-05
1.37708e-05
1.39521e-05
1.40109e-05
1.41358e-05
1.40758e-05
1.40987e-05
1.40087e-05
1.39539e-05
1.3805e-05
1.38479e-05
1.37701e-05
1.38247e-05
1.37356e-05
1.37031e-05
1.36078e-05
1.34836e-05
1.34061e-05
1.32386e-05
1.29836e-05
1.28814e-05
1.26827e-05
1.26875e-05
1.26719e-05
1.26953e-05
1.26855e-05
1.26794e-05
1.29692e-05
1.34915e-05
1.38214e-05
1.35673e-05
1.33634e-05
1.30794e-05
1.27989e-05
1.26675e-05
1.24962e-05
1.25978e-05
1.21917e-05
1.19756e-05
1.18531e-05
1.16026e-05
1.14101e-05
1.11465e-05
1.11623e-05
1.06868e-05
1.02184e-05
9.60144e-06
8.80802e-06
8.10961e-06
8.0279e-06
7.07147e-06
6.31658e-06
5.89456e-06
5.48178e-06
4.88262e-06
5.06436e-06
4.6828e-06
4.24382e-06
4.00826e-06
4.09106e-06
4.02061e-06
3.99102e-06
3.75582e-06
3.72792e-06
4.06677e-06
4.25144e-06
4.52337e-06
4.68184e-06
4.67254e-06
4.69123e-06
4.68771e-06
4.59955e-06
4.7752e-06
4.66329e-06
4.66641e-06
4.81149e-06
4.91907e-06
5.06784e-06
5.00763e-06
4.90311e-06
4.9708e-06
4.67325e-06
4.72777e-06
4.56474e-06
4.62154e-06
4.52642e-06
4.12551e-06
3.97991e-06
3.58861e-06
3.5934e-06
3.39932e-06
3.4287e-06
3.85879e-06
4.34634e-06
4.36046e-06
3.97827e-06
4.13131e-06
4.10821e-06
4.5354e-06
4.58069e-06
5.01645e-06
5.00868e-06
4.86291e-06
4.51189e-06
4.12485e-06
3.7742e-06
3.64168e-06
2.9293e-06
3.17092e-06
2.21319e-06
3.20216e-06
1.50775e-06
2.9685e-06
1.17795e-06
2.28567e-06
1.56081e-06
1.73271e-06
6.53582e-07
1.05913e-06
8.89568e-07
1.7417e-06
8.10784e-07
1.37009e-06
7.29211e-08
3.65513e-06
7.32949e-06
9.5036e-06
1.06741e-05
1.22602e-05
7.82643e-06
2.49724e-06
3.01748e-07
6.05728e-08
8.87362e-08
6.4296e-08
3.31777e-08
3.30841e-08
3.43469e-08
3.23509e-08
3.01826e-08
2.96549e-08
2.95528e-08
2.92479e-08
2.86537e-08
2.85131e-08
2.83878e-08
2.84554e-08
2.80812e-08
2.82485e-08
2.80441e-08
2.79874e-08
2.79612e-08
2.79295e-08
2.79164e-08
2.79092e-08
2.79119e-08
2.79126e-08
2.79167e-08
2.79173e-08
2.79233e-08
2.79539e-08
2.80066e-08
2.81116e-08
2.82042e-08
2.81213e-08
2.82709e-08
2.83941e-08
2.85173e-08
2.86343e-08
2.92711e-08
2.9456e-08
2.93792e-08
2.97156e-08
3.19759e-08
3.41857e-08
3.49586e-08
3.77346e-08
3.55944e-08
5.58249e-08
5.99878e-08
1.45373e-08
2.40535e-08
5.3918e-08
2.59581e-08
7.26994e-14
3.95476e-12
1.16021e-07
1.19257e-07
2.35777e-08
6.94009e-08
3.70287e-07
1.15405e-07
2.01982e-08
2.7976e-07
4.41769e-07
1.00515e-07
8.03311e-07
3.0511e-07
1.17005e-06
4.01811e-07
1.2178e-06
7.97148e-07
1.22463e-06
1.41349e-06
1.66044e-06
1.05765e-06
1.5216e-06
1.74178e-06
1.893e-06
1.69384e-06
2.07471e-06
1.93384e-06
1.70359e-06
1.65719e-06
1.2691e-06
1.73522e-06
1.45987e-06
1.9729e-06
1.47675e-06
1.73048e-06
2.05796e-06
2.29755e-06
2.46027e-06
2.46539e-06
2.55565e-06
2.72695e-06
2.54293e-06
2.75178e-06
2.94006e-06
2.75947e-06
2.76863e-06
2.55765e-06
2.379e-06
2.30015e-06
2.37503e-06
2.72469e-06
2.99237e-06
4.10467e-06
3.90743e-06
2.90903e-06
2.35999e-06
2.42121e-06
3.21705e-06
3.48214e-06
4.09206e-06
4.63364e-06
4.5288e-06
4.05832e-06
3.87307e-06
3.84146e-06
3.51815e-06
3.44287e-06
3.49932e-06
3.95664e-06
4.37769e-06
4.01241e-06
4.39718e-06
5.22928e-06
5.4455e-06
5.36343e-06
5.90674e-06
6.85476e-06
7.61223e-06
8.40146e-06
8.94099e-06
9.41608e-06
9.95589e-06
1.03857e-05
1.07618e-05
1.11269e-05
1.13671e-05
1.15954e-05
1.16149e-05
1.15205e-05
1.1422e-05
1.13261e-05
1.11575e-05
1.10372e-05
1.09321e-05
1.07449e-05
1.05199e-05
1.04261e-05
1.01766e-05
1.0243e-05
9.99659e-06
1.00169e-05
9.9831e-06
9.87851e-06
9.98396e-06
9.82845e-06
9.8808e-06
9.79597e-06
9.81871e-06
9.79565e-06
9.74274e-06
9.71179e-06
9.61492e-06
9.57602e-06
9.48543e-06
9.42735e-06
9.28181e-06
9.17836e-06
8.981e-06
8.83195e-06
8.59307e-06
8.38152e-06
8.05672e-06
7.72019e-06
7.28239e-06
6.81769e-06
6.24808e-06
5.62482e-06
4.90694e-06
4.16103e-06
3.3923e-06
2.65608e-06
1.96967e-06
1.33536e-06
8.22438e-07
4.10467e-07
2.1226e-07
9.89598e-08
7.02714e-08
4.50966e-08
5.30128e-08
6.07298e-08
6.33622e-08
4.53756e-08
4.71671e-08
7.6228e-08
9.71922e-08
8.52364e-08
1.07734e-07
1.29854e-07
4.66046e-08
3.27141e-08
1.3919e-07
2.75523e-07
1.37334e-07
2.31091e-08
4.67868e-08
5.13548e-08
4.93809e-08
9.21572e-09
1.01178e-08
2.04531e-08
1.0987e-08
1.92657e-08
3.88014e-08
8.71784e-09
7.09406e-09
6.92614e-08
1.46488e-07
6.38773e-08
8.30032e-08
3.51031e-07
6.71788e-07
8.64464e-07
1.08899e-06
1.4196e-06
1.76571e-06
2.09357e-06
2.54316e-06
3.07257e-06
3.73451e-06
4.41415e-06
5.17378e-06
5.91981e-06
6.78129e-06
7.52416e-06
8.2645e-06
8.78587e-06
9.28635e-06
9.55725e-06
9.77968e-06
9.87534e-06
9.9605e-06
9.86265e-06
9.98487e-06
9.94872e-06
1.01068e-05
1.00742e-05
1.0187e-05
1.01598e-05
1.01393e-05
1.0065e-05
9.98528e-06
9.7571e-06
9.66497e-06
9.46476e-06
9.42379e-06
9.49642e-06
9.62802e-06
9.85686e-06
1.00503e-05
1.02906e-05
1.06063e-05
1.09003e-05
1.0652e-05
1.07511e-05
1.06285e-05
1.02976e-05
1.02702e-05
9.99638e-06
1.0643e-05
1.02882e-05
1.01003e-05
1.01247e-05
9.87858e-06
9.72505e-06
9.40687e-06
9.8284e-06
9.95624e-06
9.68543e-06
9.08672e-06
8.37549e-06
8.14513e-06
8.16866e-06
7.10605e-06
6.10637e-06
5.88399e-06
5.61093e-06
4.86529e-06
4.85557e-06
4.61588e-06
4.10897e-06
3.7359e-06
3.6598e-06
3.48103e-06
3.29399e-06
2.55529e-06
2.45349e-06
2.85935e-06
3.22972e-06
3.61412e-06
4.17828e-06
4.32464e-06
4.39078e-06
4.19208e-06
3.695e-06
3.64334e-06
3.40519e-06
3.34545e-06
3.69585e-06
3.91954e-06
3.71875e-06
3.83271e-06
3.83006e-06
3.58985e-06
2.76601e-06
2.40248e-06
2.48664e-06
2.14406e-06
1.70544e-06
1.14369e-06
1.08412e-06
8.2203e-07
6.3394e-07
6.17779e-07
1.04332e-06
1.88918e-06
2.48114e-06
2.40735e-06
1.97517e-06
2.25677e-06
2.55529e-06
3.16054e-06
3.1063e-06
3.59575e-06
3.21202e-06
3.22716e-06
2.32502e-06
2.29206e-06
8.81571e-07
9.73994e-07
1.41241e-07
2.27221e-07
1.41103e-08
1.30919e-07
2.40861e-08
6.15886e-08
1.13855e-09
1.95596e-08
6.73145e-08
2.7192e-10
1.2405e-08
2.52648e-10
7.71254e-09
3.1392e-09
2.48461e-09
3.6726e-09
2.28237e-09
3.8612e-08
3.38284e-06
5.3681e-06
5.86981e-06
1.0981e-05
1.06282e-05
4.78517e-06
1.10925e-06
1.52084e-07
2.52946e-08
5.47264e-08
2.90328e-08
3.64782e-08
3.40918e-08
3.23488e-08
3.03445e-08
2.97657e-08
2.95961e-08
2.92344e-08
2.86726e-08
2.85283e-08
2.85639e-08
2.819e-08
2.81636e-08
2.80773e-08
2.80117e-08
2.79476e-08
2.79208e-08
2.79424e-08
2.79284e-08
2.79048e-08
2.79127e-08
2.79098e-08
2.79054e-08
2.79302e-08
2.7946e-08
2.7913e-08
2.79574e-08
2.79383e-08
2.8121e-08
2.80992e-08
2.81754e-08
2.85521e-08
2.84815e-08
2.86403e-08
2.93094e-08
2.94681e-08
2.93519e-08
2.96902e-08
3.21446e-08
3.52672e-08
4.17777e-08
4.48737e-08
2.75956e-08
3.98814e-08
6.41162e-09
2.83439e-08
8.11013e-08
2.87938e-07
3.76479e-07
3.72549e-07
1.4438e-07
9.97587e-08
6.34244e-08
9.86939e-08
5.59356e-08
6.81693e-08
7.2771e-09
1.31414e-08
4.25712e-09
6.85867e-09
1.936e-08
2.67946e-09
1.94312e-08
2.55717e-09
3.06427e-08
9.21347e-11
3.1579e-08
7.46674e-09
6.54177e-09
7.74595e-09
2.10893e-08
9.37812e-09
1.88873e-08
3.77058e-08
3.75043e-08
8.54053e-09
6.04467e-08
9.94759e-09
2.75782e-08
2.16042e-08
2.1977e-08
3.45373e-08
1.67943e-08
2.36544e-08
2.03202e-08
4.24531e-08
9.73319e-08
1.08611e-07
1.365e-07
1.92265e-07
3.0071e-07
2.57031e-07
3.69912e-07
4.3229e-07
3.3783e-07
3.58002e-07
2.97043e-07
2.21176e-07
2.1346e-07
2.81751e-07
4.95537e-07
7.97299e-07
1.64572e-06
1.2899e-06
3.73442e-07
3.13204e-07
4.68819e-07
9.7153e-07
1.12726e-06
1.91245e-06
2.75938e-06
2.42292e-06
1.74047e-06
1.58166e-06
1.70727e-06
1.5107e-06
1.4354e-06
1.51156e-06
2.01873e-06
2.42784e-06
1.98878e-06
2.19106e-06
2.82368e-06
2.88104e-06
2.64889e-06
3.20688e-06
4.02839e-06
4.60417e-06
5.14854e-06
5.34186e-06
5.48998e-06
5.80818e-06
5.95352e-06
6.07541e-06
6.20052e-06
6.21778e-06
6.18555e-06
5.94045e-06
5.64191e-06
5.40437e-06
5.18377e-06
4.88543e-06
4.6733e-06
4.48848e-06
4.12183e-06
3.8547e-06
3.66703e-06
3.49074e-06
3.45494e-06
3.23177e-06
3.27064e-06
3.15146e-06
3.07896e-06
3.11608e-06
2.96984e-06
2.99465e-06
2.91018e-06
2.89687e-06
2.87674e-06
2.80196e-06
2.78008e-06
2.68587e-06
2.65707e-06
2.57486e-06
2.52299e-06
2.42266e-06
2.33672e-06
2.20186e-06
2.09889e-06
1.93497e-06
1.7938e-06
1.57918e-06
1.37101e-06
1.10431e-06
8.57375e-07
5.78586e-07
3.59659e-07
1.85346e-07
9.79249e-08
5.39366e-08
3.66567e-08
3.00514e-08
2.5978e-08
2.61572e-08
2.50345e-08
2.75474e-08
2.75172e-08
2.97652e-08
2.92212e-08
2.98529e-08
2.89184e-08
3.08487e-08
3.30404e-08
3.44863e-08
3.23347e-08
3.16264e-08
3.36719e-08
3.0876e-08
2.77761e-08
4.45675e-08
6.59315e-08
2.72503e-08
6.06823e-09
2.12141e-08
1.3361e-07
4.63387e-08
3.68102e-08
4.96424e-08
6.16287e-08
4.26252e-08
2.80742e-08
1.95979e-08
1.55432e-08
1.36284e-08
1.20194e-08
1.0377e-08
1.0763e-08
1.05385e-08
9.27534e-09
8.36447e-09
1.01458e-08
1.02244e-08
1.20203e-08
1.24184e-08
1.67064e-08
2.08608e-08
2.52729e-08
3.46155e-08
5.53368e-08
9.57457e-08
1.82436e-07
3.25702e-07
5.65607e-07
9.68375e-07
1.43406e-06
1.9763e-06
2.42721e-06
2.89159e-06
3.18957e-06
3.46162e-06
3.60566e-06
3.76433e-06
3.70286e-06
3.81408e-06
3.79058e-06
3.92159e-06
3.94299e-06
4.08104e-06
4.08012e-06
4.12804e-06
4.02815e-06
4.10901e-06
3.93197e-06
3.85824e-06
3.68663e-06
3.61265e-06
3.6663e-06
3.93933e-06
4.2044e-06
4.4699e-06
4.55859e-06
4.60334e-06
4.70018e-06
4.60225e-06
4.94776e-06
4.97284e-06
4.61444e-06
4.65778e-06
4.49792e-06
5.38617e-06
5.30538e-06
5.22514e-06
5.34026e-06
5.24692e-06
5.10533e-06
4.77745e-06
5.54964e-06
6.49191e-06
6.55263e-06
6.11798e-06
5.3593e-06
5.45419e-06
5.81871e-06
4.89901e-06
3.6952e-06
3.5525e-06
3.31493e-06
2.67235e-06
2.66193e-06
2.84038e-06
2.37019e-06
1.76148e-06
1.5535e-06
1.26677e-06
8.85853e-07
2.7356e-07
2.52737e-07
5.15251e-07
8.72521e-07
1.31176e-06
2.0834e-06
2.42297e-06
2.46679e-06
2.17229e-06
1.62122e-06
1.48411e-06
1.33239e-06
1.20585e-06
1.56946e-06
1.82684e-06
1.46231e-06
1.47166e-06
1.51851e-06
1.21166e-06
5.41641e-07
2.77138e-07
4.50556e-07
2.57184e-07
1.69677e-07
9.51303e-08
7.30902e-08
6.04457e-08
3.54536e-08
4.36286e-08
7.45841e-08
3.08291e-07
5.93777e-07
4.72717e-07
3.09128e-07
5.23391e-07
8.46153e-07
1.3728e-06
1.26707e-06
1.57734e-06
1.04431e-06
1.28845e-06
3.5302e-07
4.74738e-07
3.44431e-08
3.92213e-08
6.42173e-08
1.07063e-07
1.33316e-07
9.77856e-08
1.50632e-07
1.2598e-07
9.78464e-08
1.87734e-07
5.23318e-07
2.1395e-08
6.97355e-07
2.58555e-07
1.15748e-07
9.59714e-07
3.58461e-08
1.14828e-06
1.83912e-07
5.53816e-07
1.36476e-06
3.10499e-06
2.53685e-06
5.31825e-06
1.01329e-05
5.87474e-06
1.75664e-06
2.64542e-07
3.1218e-08
2.62202e-08
5.87523e-08
5.20357e-08
3.67343e-08
3.2796e-08
3.04803e-08
2.98108e-08
2.96209e-08
2.92403e-08
2.86731e-08
2.85385e-08
2.83652e-08
2.83913e-08
2.81054e-08
2.82321e-08
2.80469e-08
2.79949e-08
2.79531e-08
2.79341e-08
2.79193e-08
2.79088e-08
2.79097e-08
2.79131e-08
2.79127e-08
2.79165e-08
2.79276e-08
2.79594e-08
2.7983e-08
2.81852e-08
2.81644e-08
2.81098e-08
2.83462e-08
2.84852e-08
2.84994e-08
2.86461e-08
2.93079e-08
2.9475e-08
2.93147e-08
2.95838e-08
3.17404e-08
3.30692e-08
3.47266e-08
3.14454e-08
3.64424e-08
1.32003e-08
3.18085e-08
1.82292e-08
8.06564e-09
2.2009e-09
4.11132e-08
1.22397e-07
2.05747e-07
2.21025e-07
1.68361e-07
1.63409e-07
2.39261e-07
2.23337e-07
3.26997e-07
2.55663e-07
2.96991e-07
2.05476e-07
2.44915e-07
1.96188e-07
2.54728e-07
2.07546e-07
3.01612e-07
2.05661e-07
1.89959e-07
1.69183e-07
2.57096e-07
1.691e-07
1.68282e-07
1.69763e-07
1.87963e-07
1.28371e-07
1.67276e-07
1.93888e-07
1.00982e-07
2.56928e-07
1.17437e-07
1.67228e-07
1.88776e-07
1.3289e-07
1.96369e-07
1.56772e-07
1.8759e-07
1.60972e-07
1.53561e-07
1.56173e-07
1.50936e-07
1.45717e-07
1.49314e-07
1.59601e-07
1.54301e-07
1.54702e-07
1.40528e-07
1.56691e-07
1.48631e-07
1.63823e-07
1.75439e-07
2.1311e-07
2.3355e-07
3.15723e-07
4.51129e-07
3.29115e-07
2.06819e-07
2.47861e-07
2.85424e-07
3.67713e-07
4.36146e-07
8.50693e-07
1.30932e-06
9.53809e-07
5.98342e-07
6.16656e-07
6.70666e-07
7.2197e-07
7.09646e-07
7.36148e-07
1.06415e-06
1.31789e-06
1.02553e-06
1.18745e-06
1.58486e-06
1.65143e-06
1.69906e-06
1.98395e-06
2.05156e-06
2.18659e-06
2.14003e-06
1.96207e-06
1.82087e-06
1.78352e-06
1.69459e-06
1.58963e-06
1.49849e-06
1.38979e-06
1.25742e-06
1.07912e-06
8.79461e-07
7.76999e-07
6.37799e-07
5.22432e-07
4.12903e-07
3.56048e-07
2.31201e-07
1.98109e-07
1.56453e-07
1.41132e-07
1.27663e-07
1.11251e-07
1.07051e-07
9.71055e-08
9.42759e-08
9.28088e-08
8.66879e-08
8.32576e-08
8.05477e-08
7.92456e-08
7.8886e-08
7.57096e-08
7.33242e-08
7.00327e-08
6.61799e-08
6.59473e-08
6.24293e-08
6.10769e-08
5.63355e-08
5.34474e-08
4.95584e-08
4.66951e-08
4.35735e-08
4.104e-08
3.79527e-08
3.65536e-08
3.5299e-08
3.59436e-08
3.63953e-08
3.82281e-08
3.98795e-08
4.13858e-08
4.23622e-08
4.20516e-08
4.22964e-08
4.27961e-08
4.4126e-08
4.55506e-08
4.62393e-08
4.73243e-08
4.71498e-08
4.8414e-08
4.88283e-08
5.03748e-08
5.08467e-08
5.24711e-08
5.56041e-08
5.77138e-08
6.10554e-08
6.56083e-08
7.41053e-08
6.81037e-08
5.80399e-08
8.49786e-08
1.92294e-07
7.5778e-08
3.20176e-08
6.68483e-08
4.53966e-08
1.94843e-08
1.50427e-08
1.68769e-08
2.08364e-08
2.0034e-08
1.8701e-08
1.64595e-08
1.52928e-08
1.36013e-08
1.31663e-08
1.27559e-08
1.26461e-08
1.27446e-08
1.24963e-08
1.23375e-08
1.22488e-08
1.20002e-08
1.15627e-08
1.13645e-08
1.14047e-08
1.20505e-08
1.25876e-08
1.32285e-08
1.39655e-08
1.57839e-08
1.75757e-08
2.16822e-08
2.87361e-08
4.19523e-08
5.9497e-08
8.95764e-08
1.16574e-07
1.4663e-07
1.69919e-07
1.91031e-07
1.82874e-07
1.93513e-07
1.95827e-07
2.05167e-07
2.35638e-07
2.52085e-07
2.6851e-07
2.64233e-07
2.44766e-07
2.79613e-07
2.4434e-07
2.26047e-07
1.96425e-07
1.75154e-07
1.86148e-07
2.7983e-07
3.93901e-07
4.70459e-07
4.70902e-07
4.63911e-07
4.292e-07
4.62692e-07
6.4934e-07
7.17694e-07
5.61955e-07
5.38812e-07
5.45498e-07
9.38678e-07
1.04543e-06
1.02441e-06
1.18266e-06
1.15163e-06
1.23119e-06
9.43141e-07
1.41194e-06
2.33155e-06
2.70686e-06
2.90026e-06
2.37313e-06
2.60233e-06
3.09287e-06
2.53734e-06
1.79786e-06
1.55674e-06
1.3149e-06
7.77231e-07
5.88112e-07
9.35295e-07
7.94397e-07
4.89063e-07
4.01004e-07
2.6367e-07
1.54811e-07
1.03788e-07
8.84012e-08
1.01084e-07
1.36294e-07
2.0109e-07
5.18526e-07
8.06613e-07
8.19586e-07
6.32961e-07
3.84014e-07
3.22775e-07
2.97406e-07
2.86003e-07
4.30547e-07
5.53709e-07
4.30025e-07
4.02658e-07
4.29723e-07
3.64748e-07
2.82186e-07
2.26766e-07
2.3749e-07
1.95025e-07
1.71225e-07
1.55822e-07
1.24798e-07
1.24581e-07
1.12502e-07
1.28793e-07
1.38783e-07
1.45161e-07
1.41951e-07
1.35492e-07
1.29905e-07
1.59899e-07
2.24322e-07
3.94223e-07
3.23286e-07
3.91962e-07
1.73155e-07
3.28354e-07
6.43645e-08
1.34785e-07
5.64346e-08
7.01764e-08
4.47004e-08
3.81608e-08
7.55575e-09
2.9836e-08
7.91734e-09
1.82334e-08
2.23847e-08
6.37376e-10
3.98464e-10
6.09554e-08
1.32534e-08
1.16237e-08
3.8965e-10
2.67659e-07
1.07951e-10
2.53534e-07
2.43415e-11
3.6375e-07
3.78186e-08
1.4973e-06
6.61613e-07
9.92699e-07
7.86795e-06
6.3409e-06
2.43324e-06
3.62392e-07
2.04161e-08
7.38958e-09
6.03002e-08
4.45029e-08
3.87358e-08
3.32364e-08
3.05249e-08
2.98155e-08
2.9659e-08
2.92786e-08
2.86763e-08
2.85512e-08
2.84576e-08
2.81944e-08
2.82398e-08
2.80692e-08
2.79504e-08
2.79462e-08
2.79196e-08
2.79416e-08
2.79275e-08
2.79116e-08
2.79095e-08
2.79078e-08
2.79071e-08
2.79272e-08
2.79474e-08
2.791e-08
2.79768e-08
2.78609e-08
2.81207e-08
2.81005e-08
2.82791e-08
2.8472e-08
2.84766e-08
2.86323e-08
2.93433e-08
2.9445e-08
2.92522e-08
2.95918e-08
3.20824e-08
3.3491e-08
3.39977e-08
3.6807e-08
3.82037e-08
2.06444e-08
2.95709e-08
2.08639e-08
8.99442e-08
1.69276e-07
1.31781e-08
2.98496e-08
2.77288e-08
4.48594e-08
7.8884e-08
4.46874e-08
6.31521e-08
4.61445e-08
6.18745e-08
6.58926e-08
8.31221e-08
9.51389e-08
8.42761e-08
9.9424e-08
6.54427e-08
1.03419e-07
6.32951e-08
1.53045e-07
6.05726e-08
1.46073e-07
5.18878e-08
1.49261e-07
8.69124e-08
1.10927e-07
9.07931e-08
1.34616e-07
8.82315e-08
1.11057e-07
1.31268e-07
6.18674e-08
1.8016e-07
7.43433e-08
1.2467e-07
1.1726e-07
1.03243e-07
1.26024e-07
1.22311e-07
1.30134e-07
1.34021e-07
1.28689e-07
1.40047e-07
1.35127e-07
1.51661e-07
1.401e-07
1.43128e-07
1.35518e-07
1.36928e-07
1.38776e-07
1.46872e-07
1.57114e-07
1.68899e-07
1.89967e-07
2.13607e-07
2.42539e-07
2.56175e-07
2.26826e-07
2.33006e-07
2.79416e-07
3.43391e-07
3.48567e-07
4.1214e-07
6.69284e-07
7.45637e-07
4.83002e-07
4.29802e-07
5.09728e-07
5.50217e-07
6.71197e-07
6.28012e-07
7.30685e-07
9.16686e-07
9.28236e-07
9.59451e-07
1.06389e-06
1.23105e-06
1.1974e-06
1.02501e-06
8.31362e-07
7.16256e-07
5.48011e-07
4.711e-07
3.05595e-07
2.22577e-07
1.86936e-07
1.60835e-07
1.04829e-07
1.04424e-07
7.61552e-08
6.42005e-08
5.6115e-08
4.18397e-08
4.10048e-08
3.44884e-08
3.05817e-08
2.78035e-08
2.67534e-08
2.30738e-08
2.52004e-08
2.18271e-08
2.46708e-08
2.22888e-08
2.41543e-08
2.31707e-08
2.3846e-08
2.41675e-08
2.47182e-08
2.44186e-08
2.56682e-08
2.46249e-08
2.63914e-08
2.57945e-08
2.64222e-08
2.70348e-08
2.64733e-08
2.78226e-08
2.69352e-08
2.7952e-08
2.80251e-08
2.80453e-08
2.93144e-08
2.86101e-08
3.03423e-08
2.97841e-08
3.0917e-08
3.10915e-08
3.09715e-08
3.1978e-08
3.04955e-08
3.15765e-08
2.94075e-08
2.9927e-08
2.8726e-08
2.88496e-08
2.96542e-08
2.97604e-08
3.18695e-08
3.08912e-08
3.26032e-08
3.10022e-08
3.26251e-08
3.22528e-08
3.38382e-08
3.44417e-08
3.51115e-08
3.6831e-08
3.6907e-08
3.88028e-08
3.8915e-08
3.9944e-08
4.03046e-08
3.88392e-08
4.08578e-08
4.69359e-08
3.97342e-08
1.48734e-08
4.25757e-08
8.63549e-08
4.16196e-08
5.84572e-08
6.59736e-08
5.22042e-08
3.56377e-08
2.70613e-08
2.10382e-08
1.77604e-08
1.50231e-08
1.33094e-08
1.14588e-08
1.07351e-08
1.0029e-08
9.82653e-09
9.41397e-09
9.66299e-09
9.53707e-09
9.80989e-09
1.03185e-08
1.07899e-08
1.1087e-08
1.08309e-08
1.09332e-08
1.10124e-08
1.11382e-08
1.085e-08
1.04821e-08
1.02351e-08
1.04562e-08
1.08208e-08
1.17183e-08
1.22777e-08
1.31328e-08
1.36397e-08
1.39518e-08
1.4096e-08
1.38899e-08
1.35483e-08
1.33749e-08
1.35138e-08
1.32466e-08
1.40043e-08
1.39632e-08
1.45591e-08
1.45388e-08
1.45393e-08
1.51985e-08
1.47087e-08
1.43976e-08
1.39489e-08
1.37891e-08
1.38527e-08
1.5965e-08
1.83786e-08
2.00573e-08
2.191e-08
2.58784e-08
2.41787e-08
2.93666e-08
3.45178e-08
3.49947e-08
3.62689e-08
3.28537e-08
3.28431e-08
5.5784e-08
5.30875e-08
6.68048e-08
8.90822e-08
7.0028e-08
1.2486e-07
8.2335e-08
1.06386e-07
3.39379e-07
4.71232e-07
8.53064e-07
8.60868e-07
8.91247e-07
1.41243e-06
1.39897e-06
1.08088e-06
8.57647e-07
6.63773e-07
5.8833e-07
3.74072e-07
3.17252e-07
3.11287e-07
2.64467e-07
2.42629e-07
2.03639e-07
1.53196e-07
1.61581e-07
1.36545e-07
1.29348e-07
1.25163e-07
1.05384e-07
1.4799e-07
2.37624e-07
2.40658e-07
2.04462e-07
1.36843e-07
1.31856e-07
1.35314e-07
1.39812e-07
1.90295e-07
2.21766e-07
2.02702e-07
1.91996e-07
1.92301e-07
1.90104e-07
1.90869e-07
1.50375e-07
1.43857e-07
1.3454e-07
1.10652e-07
1.01586e-07
7.68213e-08
6.92821e-08
5.9583e-08
6.80987e-08
7.88889e-08
9.26309e-08
9.08438e-08
9.19911e-08
8.47358e-08
1.04249e-07
1.25737e-07
1.59379e-07
1.28392e-07
1.27e-07
7.50561e-08
1.09088e-07
3.8376e-08
5.18269e-08
2.6989e-08
2.40067e-08
1.90207e-08
2.26053e-08
4.47601e-08
2.04267e-08
6.50888e-08
5.88326e-08
9.83473e-08
2.0926e-07
1.61127e-07
5.53477e-08
2.53665e-07
1.56972e-07
8.48794e-08
8.88526e-07
3.43799e-10
8.85483e-07
2.85511e-09
8.34396e-07
2.16616e-08
6.23485e-07
8.37057e-07
8.17124e-11
5.35335e-06
6.33472e-06
3.12858e-06
6.3321e-07
1.68835e-07
5.15684e-08
2.58532e-08
2.71449e-08
3.48797e-08
3.31747e-08
3.06547e-08
2.98758e-08
2.96903e-08
2.92715e-08
2.86865e-08
2.85416e-08
2.8437e-08
2.82748e-08
2.80535e-08
2.82195e-08
2.80512e-08
2.79924e-08
2.79498e-08
2.79323e-08
2.79229e-08
2.79038e-08
2.79106e-08
2.79127e-08
2.79179e-08
2.79205e-08
2.79227e-08
2.79568e-08
2.79663e-08
2.81674e-08
2.81128e-08
2.81778e-08
2.83279e-08
2.84563e-08
2.84726e-08
2.86504e-08
2.93945e-08
2.94699e-08
2.92685e-08
2.96072e-08
3.23825e-08
3.46892e-08
4.13883e-08
4.74643e-08
2.52071e-08
4.27055e-08
2.3716e-08
2.83569e-08
1.07317e-08
2.9816e-08
1.70668e-07
5.69573e-08
1.03514e-07
6.0893e-08
6.92504e-08
9.81221e-08
6.81343e-08
1.02687e-07
6.88795e-08
9.33868e-08
6.68307e-08
9.48048e-08
7.94902e-08
1.0408e-07
8.86885e-08
9.88959e-08
7.87054e-08
8.85937e-08
1.03804e-07
6.92958e-08
1.22137e-07
6.29699e-08
1.16144e-07
8.17428e-08
1.06567e-07
7.55923e-08
1.17603e-07
7.66261e-08
1.14381e-07
1.02051e-07
7.47918e-08
1.35224e-07
7.67546e-08
1.14535e-07
1.10552e-07
1.10165e-07
1.24463e-07
1.0762e-07
1.19906e-07
1.09384e-07
1.30611e-07
1.30875e-07
1.39717e-07
1.4039e-07
1.30934e-07
1.36711e-07
1.39853e-07
1.43804e-07
1.47102e-07
1.62719e-07
1.70548e-07
1.8411e-07
2.00167e-07
2.20451e-07
2.16264e-07
2.36652e-07
2.5682e-07
2.97921e-07
3.20812e-07
3.49184e-07
4.37946e-07
5.02232e-07
4.22646e-07
3.36658e-07
4.03385e-07
4.58338e-07
4.69613e-07
5.61768e-07
5.82756e-07
6.44856e-07
6.99032e-07
7.19125e-07
7.30316e-07
7.29978e-07
6.6842e-07
4.55062e-07
2.82148e-07
2.09358e-07
1.1795e-07
9.71077e-08
8.03642e-08
5.24477e-08
4.63836e-08
4.31866e-08
3.49855e-08
3.29952e-08
3.02735e-08
2.81728e-08
2.63241e-08
2.52206e-08
2.28372e-08
2.32669e-08
2.11953e-08
2.15264e-08
1.98663e-08
2.11323e-08
1.92514e-08
2.10074e-08
1.98368e-08
2.11824e-08
2.02541e-08
2.15954e-08
2.09362e-08
2.20301e-08
2.19791e-08
2.28056e-08
2.2863e-08
2.37017e-08
2.35512e-08
2.44965e-08
2.43498e-08
2.50745e-08
2.52561e-08
2.57478e-08
2.59544e-08
2.65058e-08
2.65194e-08
2.71381e-08
2.7075e-08
2.78698e-08
2.75108e-08
2.85044e-08
2.82446e-08
2.92301e-08
2.91444e-08
3.00505e-08
3.04322e-08
3.1594e-08
3.24892e-08
3.40557e-08
3.5253e-08
3.73331e-08
3.81424e-08
3.93932e-08
3.8839e-08
3.9255e-08
3.877e-08
3.99481e-08
4.09254e-08
4.27279e-08
4.35237e-08
4.45511e-08
4.46831e-08
4.64266e-08
4.65314e-08
4.90534e-08
4.89759e-08
5.26841e-08
5.28861e-08
5.75767e-08
6.19841e-08
6.71473e-08
6.91142e-08
7.59193e-08
1.2584e-07
5.09317e-08
5.696e-08
4.50917e-08
2.38934e-08
1.81243e-08
2.05893e-08
2.24477e-08
2.44952e-08
2.27697e-08
2.13615e-08
1.91562e-08
1.75567e-08
1.53805e-08
1.43853e-08
1.36797e-08
1.31622e-08
1.26833e-08
1.22292e-08
1.16984e-08
1.16066e-08
1.10954e-08
1.11105e-08
1.12591e-08
1.1594e-08
1.17434e-08
1.19404e-08
1.23065e-08
1.29373e-08
1.34381e-08
1.38844e-08
1.37607e-08
1.35482e-08
1.29662e-08
1.25909e-08
1.21361e-08
1.1975e-08
1.15501e-08
1.1413e-08
1.10977e-08
1.08676e-08
1.06838e-08
1.07367e-08
1.06909e-08
1.07662e-08
1.07019e-08
1.0872e-08
1.09206e-08
1.10816e-08
1.12229e-08
1.10221e-08
1.09564e-08
1.0706e-08
1.07538e-08
1.0735e-08
1.11028e-08
1.14798e-08
1.18685e-08
1.32219e-08
1.63278e-08
1.76415e-08
1.76991e-08
1.76431e-08