/*--------------------------------*- C++ -*----------------------------------*\
| =========                 |                                                 |
| \\      /  F ield         | OpenFOAM: The Open Source CFD Toolbox           |
|  \\    /   O peration     | Version:  v2006                                 |
|   \\  /    A nd           | Website:  www.openfoam.com                      |
|    \\/     M anipulation  |                                                 |
\*---------------------------------------------------------------------------*/
FoamFile
{
    version     2.0;
    format      ascii;
    class       volScalarField;
    location    "25";
    object      cellVolu;
}
// * * * * * * * * * * * * * * * * * * * * * * * * * * * * * * * * * * * * * //

dimensions      [0 3 0 0 0 0 0];


internalField   nonuniform List<scalar> 
93840
(
0.006404
0.0048268
0.0036381
0.00274516
0.00207165
0.0015674
0.00119193
0.000903416
0.000680949
0.000512997
0.000386653
0.000291574
0.000219658
0.000165567
0.000124844
9.41047e-05
7.09278e-05
5.34765e-05
4.02667e-05
3.03312e-05
2.28637e-05
1.72412e-05
1.29863e-05
9.78628e-06
7.37729e-06
5.56714e-06
4.18803e-06
3.15818e-06
2.37513e-06
1.78385e-06
1.35485e-06
1.04818e-06
1.01437e-06
1.05009e-06
1.09388e-06
1.14275e-06
1.19412e-06
1.2476e-06
1.30443e-06
1.36326e-06
1.42304e-06
1.48819e-06
1.55299e-06
1.62266e-06
1.6946e-06
1.76939e-06
1.84656e-06
1.92768e-06
2.01146e-06
2.09876e-06
2.19e-06
2.28327e-06
2.38187e-06
2.48305e-06
2.58804e-06
2.69743e-06
2.81009e-06
2.92765e-06
3.04832e-06
3.17396e-06
3.30397e-06
3.43699e-06
3.57494e-06
3.7188e-06
3.86531e-06
4.01657e-06
4.17343e-06
4.33424e-06
4.49837e-06
4.66873e-06
4.84239e-06
5.02131e-06
5.20468e-06
5.39113e-06
5.58225e-06
5.77758e-06
5.97613e-06
6.1792e-06
6.38485e-06
6.59486e-06
6.80762e-06
7.02256e-06
7.23983e-06
7.45993e-06
7.68188e-06
7.90504e-06
8.12803e-06
8.35307e-06
8.57679e-06
8.80011e-06
9.02458e-06
9.24465e-06
9.46422e-06
9.68083e-06
9.89512e-06
1.01038e-05
1.03088e-05
1.05084e-05
1.0702e-05
1.08906e-05
1.10713e-05
1.12441e-05
1.14071e-05
1.1565e-05
1.17096e-05
1.18463e-05
1.19712e-05
1.20862e-05
1.21874e-05
1.22778e-05
1.23554e-05
1.24228e-05
1.24762e-05
1.25147e-05
1.25403e-05
1.2554e-05
1.25518e-05
1.25379e-05
1.25083e-05
1.24687e-05
1.24121e-05
1.23466e-05
1.22654e-05
1.21744e-05
1.20695e-05
1.19537e-05
1.18262e-05
1.16902e-05
1.15414e-05
1.13849e-05
1.12192e-05
1.10453e-05
1.08642e-05
1.06758e-05
1.04796e-05
1.02801e-05
1.00741e-05
9.86489e-06
9.65015e-06
9.4341e-06
9.21383e-06
8.99108e-06
8.76927e-06
8.54453e-06
8.32063e-06
8.09584e-06
7.87378e-06
7.64974e-06
7.42944e-06
7.20838e-06
6.99279e-06
6.77651e-06
6.56414e-06
6.35701e-06
6.14919e-06
5.9472e-06
5.74919e-06
5.5543e-06
5.36378e-06
5.17731e-06
4.9955e-06
4.81848e-06
4.6437e-06
4.47493e-06
4.31024e-06
4.1506e-06
3.99611e-06
3.84317e-06
3.69912e-06
3.55287e-06
3.42009e-06
3.28439e-06
3.15556e-06
3.03375e-06
2.9068e-06
2.79933e-06
2.67419e-06
2.57845e-06
2.46577e-06
2.38961e-06
2.2343e-06
2.19776e-06
2.06203e-06
1.99893e-06
2.0017e-06
2.05274e-06
2.19838e-06
2.24753e-06
2.3862e-06
2.46773e-06
2.57847e-06
2.67541e-06
2.8018e-06
2.90743e-06
3.03571e-06
3.15761e-06
3.28657e-06
3.4216e-06
3.55635e-06
3.70118e-06
3.84649e-06
3.99801e-06
4.15392e-06
4.31298e-06
4.47881e-06
4.64761e-06
4.82107e-06
4.99954e-06
5.18124e-06
5.36842e-06
5.55842e-06
5.75399e-06
5.95298e-06
6.15543e-06
6.36144e-06
6.57024e-06
6.78244e-06
6.99794e-06
7.21515e-06
7.43593e-06
7.65685e-06
7.88096e-06
8.10444e-06
8.32857e-06
8.55337e-06
8.77781e-06
9.00117e-06
9.22366e-06
9.44339e-06
9.66108e-06
9.87498e-06
1.00851e-05
1.02912e-05
1.04919e-05
1.06866e-05
1.08759e-05
1.10582e-05
1.12312e-05
1.1398e-05
1.1555e-05
1.17029e-05
1.18414e-05
1.19668e-05
1.20819e-05
1.21875e-05
1.228e-05
1.2361e-05
1.24271e-05
1.24828e-05
1.25235e-05
1.2552e-05
1.25663e-05
1.2567e-05
1.25545e-05
1.25295e-05
1.24888e-05
1.24365e-05
1.23695e-05
1.2292e-05
1.22007e-05
1.20979e-05
1.19839e-05
1.18582e-05
1.17226e-05
1.15761e-05
1.14212e-05
1.1256e-05
1.10819e-05
1.09013e-05
1.07136e-05
1.05188e-05
1.03184e-05
1.01146e-05
9.90423e-06
9.69e-06
9.47222e-06
9.2541e-06
9.03165e-06
8.80953e-06
8.5839e-06
8.36026e-06
8.13571e-06
7.91043e-06
7.68822e-06
7.46576e-06
7.24548e-06
7.02816e-06
6.81282e-06
6.60028e-06
6.3889e-06
6.18369e-06
5.98017e-06
5.78153e-06
5.58599e-06
5.39518e-06
5.20672e-06
5.0242e-06
4.84542e-06
4.67098e-06
4.50157e-06
4.33562e-06
4.17568e-06
4.01886e-06
3.86634e-06
3.72012e-06
3.57789e-06
3.43836e-06
3.30514e-06
3.17501e-06
3.04933e-06
2.92838e-06
2.81077e-06
2.69891e-06
2.58899e-06
2.484e-06
2.3828e-06
2.28452e-06
2.18992e-06
2.09951e-06
2.01236e-06
1.92729e-06
1.84802e-06
1.76878e-06
1.69473e-06
1.62293e-06
1.55388e-06
1.48746e-06
1.42406e-06
1.36292e-06
1.30441e-06
1.24798e-06
1.19421e-06
1.14267e-06
1.09701e-06
1.05082e-06
1.00314e-06
1.04843e-06
1.35438e-06
1.78791e-06
2.36883e-06
3.15927e-06
4.19136e-06
5.56748e-06
7.3812e-06
9.80956e-06
1.30092e-05
1.72552e-05
2.29004e-05
3.03962e-05
4.02921e-05
5.34241e-05
7.08757e-05
9.4054e-05
0.00012477
0.000165591
0.000219765
0.000291431
0.000386653
0.000513248
0.000680615
0.000902055
0.00119249
0.00157698
0.0020716
0.00273139
0.0036381
0.0048268
0.006404
0.00739662
0.0061783
0.00465677
0.00351406
0.00266523
0.00202019
0.00152945
0.00115628
0.000871196
0.000656643
0.000495315
0.00037362
0.000281605
0.000212087
0.000159873
0.000120516
9.08437e-05
6.84815e-05
5.15766e-05
3.8895e-05
2.93242e-05
2.20925e-05
1.66439e-05
1.25462e-05
9.44385e-06
7.11728e-06
5.34553e-06
4.02487e-06
3.01414e-06
2.24886e-06
1.70931e-06
1.35066e-06
1.29411e-06
1.35804e-06
1.40262e-06
1.4617e-06
1.5262e-06
1.59522e-06
1.66663e-06
1.7406e-06
1.81795e-06
1.90077e-06
1.98559e-06
2.07491e-06
2.16701e-06
2.26145e-06
2.36034e-06
2.46433e-06
2.57229e-06
2.68336e-06
2.8002e-06
2.92106e-06
3.04559e-06
3.17145e-06
3.30651e-06
3.45148e-06
3.5987e-06
3.74682e-06
3.89849e-06
4.05699e-06
4.22664e-06
4.3964e-06
4.57058e-06
4.75676e-06
4.94497e-06
5.13743e-06
5.33893e-06
5.54601e-06
5.75621e-06
5.97332e-06
6.19642e-06
6.42517e-06
6.65936e-06
6.9001e-06
7.14349e-06
7.39441e-06
7.64956e-06
7.9089e-06
8.17378e-06
8.44175e-06
8.71432e-06
8.9893e-06
9.26824e-06
9.5502e-06
9.83371e-06
1.01206e-05
1.04061e-05
1.06949e-05
1.0982e-05
1.12665e-05
1.15534e-05
1.18388e-05
1.21191e-05
1.23967e-05
1.26694e-05
1.29397e-05
1.32022e-05
1.34586e-05
1.3707e-05
1.39481e-05
1.41786e-05
1.43995e-05
1.46067e-05
1.48124e-05
1.50056e-05
1.51769e-05
1.53287e-05
1.54762e-05
1.56126e-05
1.57301e-05
1.58309e-05
1.59154e-05
1.59827e-05
1.60331e-05
1.60685e-05
1.60859e-05
1.60837e-05
1.60683e-05
1.60315e-05
1.59823e-05
1.59107e-05
1.58265e-05
1.57222e-05
1.56065e-05
1.54711e-05
1.53216e-05
1.51603e-05
1.49808e-05
1.47914e-05
1.45928e-05
1.43793e-05
1.4156e-05
1.39212e-05
1.36813e-05
1.34299e-05
1.31731e-05
1.29088e-05
1.26391e-05
1.23658e-05
1.20885e-05
1.1807e-05
1.15231e-05
1.12377e-05
1.09493e-05
1.06638e-05
1.03756e-05
1.00906e-05
9.80508e-06
9.52182e-06
9.23935e-06
8.96315e-06
8.6867e-06
8.41613e-06
8.14976e-06
7.88481e-06
7.62685e-06
7.37331e-06
7.12477e-06
6.88014e-06
6.64052e-06
6.40876e-06
6.18417e-06
5.96213e-06
5.74639e-06
5.53653e-06
5.3329e-06
5.13488e-06
4.94087e-06
4.76004e-06
4.5775e-06
4.40793e-06
4.23455e-06
4.07244e-06
3.92561e-06
3.774e-06
3.64355e-06
3.49954e-06
3.38028e-06
3.24272e-06
3.18756e-06
3.06755e-06
3.02786e-06
2.87396e-06
2.82462e-06
2.83173e-06
2.88466e-06
3.03642e-06
3.06056e-06
3.16915e-06
3.24116e-06
3.38242e-06
3.50571e-06
3.65122e-06
3.77977e-06
3.93255e-06
4.08043e-06
4.24105e-06
4.40957e-06
4.5792e-06
4.76057e-06
4.94309e-06
5.13595e-06
5.33499e-06
5.5376e-06
5.74861e-06
5.96356e-06
6.18533e-06
6.41336e-06
6.64576e-06
6.88565e-06
7.12929e-06
7.37891e-06
7.6332e-06
7.89238e-06
8.15621e-06
8.42291e-06
8.69453e-06
8.97084e-06
9.24948e-06
9.53307e-06
9.81473e-06
1.01002e-05
1.03861e-05
1.06729e-05
1.09599e-05
1.12482e-05
1.15326e-05
1.18172e-05
1.20984e-05
1.23784e-05
1.26542e-05
1.29247e-05
1.31886e-05
1.34457e-05
1.3694e-05
1.3934e-05
1.41686e-05
1.43905e-05
1.46043e-05
1.48042e-05
1.49934e-05
1.51705e-05
1.53331e-05
1.54809e-05
1.56163e-05
1.5733e-05
1.58385e-05
1.59225e-05
1.59902e-05
1.60475e-05
1.60834e-05
1.61e-05
1.61034e-05
1.60873e-05
1.60529e-05
1.60016e-05
1.59353e-05
1.58523e-05
1.57508e-05
1.5634e-05
1.55026e-05
1.53555e-05
1.51942e-05
1.50195e-05
1.4831e-05
1.4633e-05
1.44238e-05
1.42017e-05
1.39648e-05
1.37196e-05
1.34772e-05
1.32273e-05
1.29605e-05
1.26823e-05
1.2411e-05
1.21397e-05
1.18604e-05
1.15706e-05
1.12842e-05
1.09969e-05
1.07097e-05
1.04225e-05
1.01352e-05
9.85021e-06
9.5643e-06
9.28168e-06
9.00382e-06
8.72733e-06
8.45392e-06
8.18522e-06
7.92238e-06
7.66129e-06
7.40658e-06
7.15581e-06
6.91046e-06
6.66963e-06
6.43728e-06
6.20724e-06
5.98356e-06
5.76602e-06
5.55357e-06
5.34969e-06
5.14954e-06
4.95485e-06
4.76597e-06
4.58168e-06
4.40359e-06
4.2326e-06
4.06778e-06
3.90705e-06
3.75048e-06
3.60082e-06
3.4558e-06
3.3155e-06
3.18103e-06
3.05263e-06
2.92672e-06
2.80607e-06
2.68907e-06
2.57668e-06
2.46781e-06
2.36554e-06
2.26622e-06
2.17102e-06
2.0787e-06
1.99064e-06
1.90559e-06
1.82359e-06
1.74532e-06
1.67157e-06
1.59924e-06
1.5323e-06
1.47009e-06
1.42618e-06
1.41633e-06
1.33934e-06
1.37048e-06
1.72015e-06
2.25903e-06
3.00103e-06
4.02573e-06
5.34569e-06
7.11497e-06
9.44167e-06
1.2534e-05
1.66314e-05
2.20936e-05
2.92959e-05
3.88666e-05
5.16131e-05
6.84996e-05
9.08216e-05
0.000120525
0.000159906
0.000212219
0.000281497
0.000373477
0.000495696
0.000657419
0.000872226
0.00115804
0.00152873
0.00201036
0.00265469
0.00351897
0.0046569
0.0061783
0.0073646
0.0067242
0.00506814
0.00382
0.00288293
0.002176
0.00164647
0.00125224
0.000948609
0.000714996
0.000538911
0.000406195
0.000306153
0.000230636
0.000173922
0.00013107
9.86941e-05
7.44289e-05
5.61212e-05
4.23242e-05
3.19032e-05
2.40247e-05
1.80928e-05
1.364e-05
1.02701e-05
7.73084e-06
5.81051e-06
4.35381e-06
3.25806e-06
2.42747e-06
1.82422e-06
1.43433e-06
1.21228e-06
1.14387e-06
1.15505e-06
1.17616e-06
1.21125e-06
1.25709e-06
1.31011e-06
1.36599e-06
1.42574e-06
1.48898e-06
1.55672e-06
1.62652e-06
1.69946e-06
1.77448e-06
1.85278e-06
1.93416e-06
2.01899e-06
2.10753e-06
2.19871e-06
2.29491e-06
2.39399e-06
2.49646e-06
2.60013e-06
2.71074e-06
2.8285e-06
2.94875e-06
3.07116e-06
3.19535e-06
3.3265e-06
3.46429e-06
3.60468e-06
3.74742e-06
3.89954e-06
4.0541e-06
4.21164e-06
4.37698e-06
4.54673e-06
4.71942e-06
4.89648e-06
5.08005e-06
5.2677e-06
5.45927e-06
5.65649e-06
5.85639e-06
6.06214e-06
6.27076e-06
6.48295e-06
6.7013e-06
6.92073e-06
7.14418e-06
7.36886e-06
7.59756e-06
7.82931e-06
8.06131e-06
8.29602e-06
8.53034e-06
8.76616e-06
9.0014e-06
9.23579e-06
9.47119e-06
9.70466e-06
9.9338e-06
1.01613e-05
1.03852e-05
1.06062e-05
1.0822e-05
1.10307e-05
1.12342e-05
1.14325e-05
1.16218e-05
1.18031e-05
1.19746e-05
1.21409e-05
1.22974e-05
1.2439e-05
1.25664e-05
1.26887e-05
1.27979e-05
1.28917e-05
1.2974e-05
1.30442e-05
1.30998e-05
1.31425e-05
1.31696e-05
1.31838e-05
1.31815e-05
1.31689e-05
1.31386e-05
1.30965e-05
1.30377e-05
1.29693e-05
1.28846e-05
1.27892e-05
1.26782e-05
1.25564e-05
1.24239e-05
1.22774e-05
1.21222e-05
1.196e-05
1.17831e-05
1.16003e-05
1.14085e-05
1.1213e-05
1.10073e-05
1.0797e-05
1.05797e-05
1.03595e-05
1.0134e-05
9.90736e-06
9.67673e-06
9.44332e-06
9.21023e-06
8.97329e-06
8.73929e-06
8.50253e-06
8.2693e-06
8.03541e-06
7.80306e-06
7.57176e-06
7.34548e-06
7.11882e-06
6.89662e-06
6.67779e-06
6.46083e-06
6.24895e-06
6.04098e-06
5.83691e-06
5.63661e-06
5.44009e-06
5.25e-06
5.06542e-06
4.88288e-06
4.70599e-06
4.53384e-06
4.36665e-06
4.20398e-06
4.04504e-06
3.89509e-06
3.74562e-06
3.60498e-06
3.46315e-06
3.32975e-06
3.20618e-06
3.08113e-06
2.96885e-06
2.85129e-06
2.74703e-06
2.63494e-06
2.56652e-06
2.46767e-06
2.40547e-06
2.29239e-06
2.24649e-06
2.24934e-06
2.29778e-06
2.41099e-06
2.46435e-06
2.5575e-06
2.63449e-06
2.74867e-06
2.85517e-06
2.97366e-06
3.085e-06
3.21062e-06
3.3351e-06
3.46773e-06
3.60638e-06
3.74724e-06
3.89637e-06
4.04726e-06
4.20566e-06
4.36873e-06
4.53529e-06
4.70842e-06
4.88472e-06
5.06685e-06
5.25405e-06
5.44459e-06
5.64131e-06
5.84105e-06
6.04549e-06
6.25406e-06
6.46605e-06
6.68319e-06
6.90161e-06
7.12469e-06
7.35096e-06
7.57861e-06
7.81205e-06
8.04371e-06
8.27716e-06
8.51115e-06
8.74743e-06
8.98176e-06
9.21772e-06
9.45263e-06
9.6862e-06
9.91641e-06
1.01444e-05
1.03707e-05
1.05916e-05
1.08084e-05
1.10185e-05
1.12232e-05
1.14208e-05
1.16121e-05
1.17946e-05
1.19692e-05
1.21345e-05
1.22882e-05
1.24337e-05
1.25676e-05
1.26891e-05
1.27995e-05
1.28953e-05
1.29809e-05
1.30501e-05
1.31053e-05
1.31525e-05
1.31819e-05
1.31953e-05
1.31973e-05
1.31847e-05
1.31576e-05
1.31155e-05
1.30613e-05
1.29914e-05
1.29087e-05
1.28136e-05
1.27046e-05
1.25846e-05
1.24536e-05
1.23098e-05
1.21565e-05
1.19923e-05
1.18208e-05
1.16396e-05
1.14452e-05
1.12458e-05
1.1045e-05
1.08394e-05
1.06219e-05
1.03956e-05
1.01729e-05
9.94856e-06
9.71827e-06
9.48259e-06
9.24882e-06
9.01286e-06
8.77768e-06
8.54186e-06
8.30613e-06
8.07297e-06
7.8394e-06
7.6082e-06
7.38006e-06
7.15257e-06
6.92972e-06
6.70951e-06
6.49332e-06
6.27923e-06
6.07026e-06
5.86404e-06
5.66331e-06
5.46693e-06
5.27589e-06
5.08699e-06
4.90455e-06
4.72619e-06
4.55148e-06
4.38461e-06
4.21993e-06
4.06026e-06
3.9047e-06
3.75377e-06
3.60928e-06
3.4688e-06
3.33362e-06
3.20106e-06
3.07344e-06
2.95033e-06
2.83149e-06
2.71621e-06
2.60629e-06
2.49985e-06
2.39735e-06
2.29866e-06
2.20189e-06
2.11042e-06
2.02137e-06
1.93697e-06
1.856e-06
1.7772e-06
1.70203e-06
1.62952e-06
1.55904e-06
1.49274e-06
1.42828e-06
1.36911e-06
1.31101e-06
1.25994e-06
1.21612e-06
1.19012e-06
1.18735e-06
1.17525e-06
1.22343e-06
1.44735e-06
1.84208e-06
2.41898e-06
3.25972e-06
4.34714e-06
5.81507e-06
7.72251e-06
1.0275e-05
1.36376e-05
1.81019e-05
2.40284e-05
3.19025e-05
4.22864e-05
5.60891e-05
7.44595e-05
9.87376e-05
0.000131039
0.000173904
0.000230538
0.000305867
0.000405806
0.000538659
0.000714663
0.000948102
0.00125205
0.00164725
0.00217571
0.00288216
0.0038199
0.00506814
0.0067242
0.00688426
0.00521354
0.00392915
0.00295104
0.00222772
0.00169148
0.0012827
0.000971654
0.000733035
0.000552507
0.000416051
0.000313293
0.00023635
0.000178228
0.000134266
0.000101219
7.62593e-05
5.74484e-05
4.33263e-05
3.26509e-05
2.45877e-05
1.85383e-05
1.39645e-05
1.04974e-05
7.88644e-06
5.90264e-06
4.40761e-06
3.2604e-06
2.42425e-06
1.85019e-06
1.5158e-06
1.32389e-06
1.23968e-06
1.2193e-06
1.22756e-06
1.25438e-06
1.29378e-06
1.34266e-06
1.39726e-06
1.45628e-06
1.52063e-06
1.58937e-06
1.66086e-06
1.73524e-06
1.81262e-06
1.89308e-06
1.97626e-06
2.06283e-06
2.1537e-06
2.24802e-06
2.34575e-06
2.44792e-06
2.55135e-06
2.65714e-06
2.77124e-06
2.89236e-06
3.01774e-06
3.14275e-06
3.26831e-06
3.40253e-06
3.54331e-06
3.68695e-06
3.83346e-06
3.98876e-06
4.148e-06
4.30937e-06
4.47817e-06
4.65304e-06
4.82995e-06
5.01232e-06
5.19944e-06
5.39153e-06
5.58848e-06
5.79063e-06
5.99562e-06
6.2068e-06
6.4202e-06
6.63773e-06
6.86089e-06
7.08653e-06
7.31574e-06
7.54663e-06
7.77991e-06
8.01719e-06
8.25708e-06
8.49639e-06
8.73758e-06
8.97962e-06
9.22022e-06
9.45931e-06
9.70046e-06
9.93996e-06
1.01764e-05
1.04101e-05
1.06401e-05
1.08653e-05
1.10857e-05
1.13011e-05
1.15101e-05
1.1713e-05
1.19084e-05
1.2092e-05
1.22659e-05
1.24411e-05
1.26072e-05
1.27488e-05
1.28721e-05
1.29977e-05
1.31137e-05
1.32143e-05
1.32983e-05
1.33703e-05
1.3426e-05
1.34713e-05
1.35014e-05
1.3516e-05
1.35142e-05
1.35006e-05
1.34715e-05
1.3429e-05
1.33688e-05
1.32998e-05
1.32132e-05
1.3116e-05
1.3001e-05
1.2875e-05
1.27399e-05
1.25887e-05
1.24304e-05
1.22629e-05
1.20812e-05
1.18946e-05
1.16964e-05
1.14947e-05
1.12835e-05
1.10689e-05
1.08462e-05
1.06205e-05
1.03876e-05
1.01555e-05
9.91967e-06
9.68135e-06
9.44142e-06
9.19869e-06
8.9591e-06
8.71698e-06
8.47891e-06
8.23895e-06
8.00006e-06
7.76372e-06
7.53191e-06
7.29972e-06
7.07279e-06
6.84965e-06
6.62708e-06
6.41016e-06
6.19767e-06
5.98879e-06
5.7832e-06
5.5819e-06
5.38806e-06
5.20021e-06
5.01437e-06
4.83402e-06
4.65866e-06
4.4878e-06
4.32126e-06
4.15994e-06
4.00878e-06
3.85934e-06
3.71546e-06
3.57238e-06
3.43941e-06
3.3184e-06
3.19933e-06
3.09033e-06
2.98128e-06
2.88034e-06
2.7854e-06
2.73508e-06
2.67681e-06
2.6216e-06
2.5353e-06
2.50017e-06
2.50556e-06
2.54786e-06
2.62794e-06
2.66546e-06
2.71953e-06
2.78027e-06
2.88214e-06
2.98776e-06
3.09867e-06
3.20756e-06
3.32684e-06
3.44856e-06
3.57965e-06
3.71759e-06
3.85949e-06
4.00857e-06
4.16075e-06
4.32131e-06
4.48771e-06
4.65813e-06
4.83413e-06
5.01407e-06
5.19995e-06
5.39142e-06
5.58652e-06
5.78743e-06
5.99252e-06
6.20227e-06
6.41603e-06
6.63265e-06
6.85347e-06
7.07786e-06
7.30563e-06
7.53855e-06
7.77177e-06
8.01028e-06
8.24921e-06
8.4868e-06
8.72539e-06
8.96727e-06
9.20812e-06
9.44931e-06
9.6892e-06
9.92752e-06
1.01653e-05
1.03985e-05
1.06311e-05
1.08585e-05
1.10811e-05
1.12957e-05
1.15042e-05
1.17061e-05
1.19016e-05
1.20892e-05
1.22675e-05
1.24364e-05
1.25962e-05
1.27442e-05
1.28817e-05
1.30055e-05
1.31184e-05
1.32172e-05
1.3305e-05
1.3376e-05
1.3432e-05
1.34831e-05
1.35124e-05
1.35241e-05
1.3528e-05
1.35151e-05
1.34868e-05
1.34437e-05
1.33889e-05
1.33177e-05
1.32347e-05
1.31353e-05
1.30235e-05
1.29008e-05
1.27663e-05
1.26182e-05
1.246e-05
1.22918e-05
1.2119e-05
1.19326e-05
1.17293e-05
1.15207e-05
1.13203e-05
1.11157e-05
1.08879e-05
1.06489e-05
1.04224e-05
1.01998e-05
9.96372e-06
9.71989e-06
9.47908e-06
9.23683e-06
8.99692e-06
8.7558e-06
8.51385e-06
8.27336e-06
8.03287e-06
7.79563e-06
7.56161e-06
7.32995e-06
7.10195e-06
6.87493e-06
6.65315e-06
6.4335e-06
6.22071e-06
6.00988e-06
5.80424e-06
5.60186e-06
5.40578e-06
5.21248e-06
5.02471e-06
4.842e-06
4.66383e-06
4.49292e-06
4.32474e-06
4.16087e-06
4.00121e-06
3.84655e-06
3.69734e-06
3.55327e-06
3.41494e-06
3.27925e-06
3.14843e-06
3.02146e-06
2.89956e-06
2.78131e-06
2.67017e-06
2.56025e-06
2.45639e-06
2.35374e-06
2.25467e-06
2.15968e-06
2.0695e-06
1.98215e-06
1.89944e-06
1.81917e-06
1.74135e-06
1.66754e-06
1.59598e-06
1.52891e-06
1.46486e-06
1.40696e-06
1.35302e-06
1.30976e-06
1.27629e-06
1.26093e-06
1.26116e-06
1.28969e-06
1.35051e-06
1.54425e-06
1.88395e-06
2.43e-06
3.26723e-06
4.40179e-06
5.91045e-06
7.87696e-06
1.05038e-05
1.39497e-05
1.85244e-05
2.45895e-05
3.26383e-05
4.33138e-05
5.74567e-05
7.621e-05
0.000101154
0.000134263
0.000178146
0.000236468
0.000313877
0.000416433
0.000552256
0.000732702
0.000971556
0.00128301
0.00169187
0.00222821
0.00293744
0.00389266
0.00516468
0.0068843
0.00704429
0.00530959
0.00400217
0.00302523
0.00228035
0.00172815
0.00131491
0.000995585
0.000750378
0.00056583
0.000426475
0.000321445
0.000242162
0.000182447
0.000137509
0.00010362
7.81311e-05
5.88629e-05
4.4358e-05
3.34517e-05
2.52093e-05
1.89727e-05
1.42721e-05
1.07302e-05
8.04767e-06
6.00827e-06
4.45e-06
3.2681e-06
2.44197e-06
1.90818e-06
1.59279e-06
1.41363e-06
1.32379e-06
1.28721e-06
1.2828e-06
1.30132e-06
1.33346e-06
1.37795e-06
1.43071e-06
1.48916e-06
1.55392e-06
1.62242e-06
1.69615e-06
1.77178e-06
1.85102e-06
1.93382e-06
2.01944e-06
2.10771e-06
2.20089e-06
2.29795e-06
2.39713e-06
2.50217e-06
2.60723e-06
2.71632e-06
2.83282e-06
2.95803e-06
3.08759e-06
3.21477e-06
3.34361e-06
3.47989e-06
3.62385e-06
3.77091e-06
3.92107e-06
4.08009e-06
4.24348e-06
4.40965e-06
4.58211e-06
4.762e-06
4.94286e-06
5.12984e-06
5.32235e-06
5.51828e-06
5.72e-06
5.92794e-06
6.1386e-06
6.35378e-06
6.57322e-06
6.79679e-06
7.0263e-06
7.25706e-06
7.4902e-06
7.72764e-06
7.96709e-06
8.21027e-06
8.45597e-06
8.70174e-06
8.94847e-06
9.19605e-06
9.44187e-06
9.68786e-06
9.93561e-06
1.01815e-05
1.04233e-05
1.06621e-05
1.08983e-05
1.1131e-05
1.1357e-05
1.15781e-05
1.17917e-05
1.19999e-05
1.21999e-05
1.23874e-05
1.25646e-05
1.27497e-05
1.29253e-05
1.30667e-05
1.31893e-05
1.33199e-05
1.34406e-05
1.35423e-05
1.36313e-05
1.37034e-05
1.37596e-05
1.38071e-05
1.38399e-05
1.3856e-05
1.38541e-05
1.3842e-05
1.38127e-05
1.37697e-05
1.37086e-05
1.36385e-05
1.35495e-05
1.34513e-05
1.33336e-05
1.32026e-05
1.30653e-05
1.29063e-05
1.27451e-05
1.25738e-05
1.23871e-05
1.21931e-05
1.19903e-05
1.17846e-05
1.15692e-05
1.13475e-05
1.11176e-05
1.08849e-05
1.0649e-05
1.04121e-05
1.01702e-05
9.92606e-06
9.67853e-06
9.43086e-06
9.18522e-06
8.93742e-06
8.69329e-06
8.44854e-06
8.20452e-06
7.96241e-06
7.72348e-06
7.48637e-06
7.25357e-06
7.0246e-06
6.79716e-06
6.57581e-06
6.3584e-06
6.14443e-06
5.93343e-06
5.72736e-06
5.52986e-06
5.33882e-06
5.14987e-06
4.96587e-06
4.78702e-06
4.61266e-06
4.44263e-06
4.27921e-06
4.12636e-06
3.97654e-06
3.83042e-06
3.68652e-06
3.55421e-06
3.43571e-06
3.32288e-06
3.2188e-06
3.11799e-06
3.02529e-06
2.9494e-06
2.91833e-06
2.89092e-06
2.85219e-06
2.79027e-06
2.76511e-06
2.77237e-06
2.80633e-06
2.85793e-06
2.87478e-06
2.89759e-06
2.94004e-06
3.02648e-06
3.12617e-06
3.23028e-06
3.33538e-06
3.44868e-06
3.56713e-06
3.69591e-06
3.83304e-06
3.97563e-06
4.12483e-06
4.27892e-06
4.44164e-06
4.61082e-06
4.78461e-06
4.96374e-06
5.14732e-06
5.33722e-06
5.53271e-06
5.73235e-06
5.93814e-06
6.14807e-06
6.36242e-06
6.58125e-06
6.80379e-06
7.03021e-06
7.25898e-06
7.49232e-06
7.72919e-06
7.96961e-06
8.21509e-06
8.4592e-06
8.70189e-06
8.94642e-06
9.19307e-06
9.43895e-06
9.68568e-06
9.93135e-06
1.01755e-05
1.04172e-05
1.06581e-05
1.08996e-05
1.1133e-05
1.13601e-05
1.15812e-05
1.1794e-05
1.19982e-05
1.21991e-05
1.23899e-05
1.25737e-05
1.27473e-05
1.2911e-05
1.3063e-05
1.32034e-05
1.33314e-05
1.34456e-05
1.35475e-05
1.36392e-05
1.37101e-05
1.3765e-05
1.38204e-05
1.38523e-05
1.38637e-05
1.38677e-05
1.3855e-05
1.38247e-05
1.37808e-05
1.3725e-05
1.36524e-05
1.35648e-05
1.34635e-05
1.33504e-05
1.32237e-05
1.30835e-05
1.29339e-05
1.27718e-05
1.26007e-05
1.24243e-05
1.22349e-05
1.20193e-05
1.17996e-05
1.16015e-05
1.1398e-05
1.11597e-05
1.09101e-05
1.06801e-05
1.04556e-05
1.02141e-05
9.9615e-06
9.71334e-06
9.46679e-06
9.22091e-06
8.97266e-06
8.72483e-06
8.47956e-06
8.23311e-06
7.98893e-06
7.7495e-06
7.51247e-06
7.27744e-06
7.04558e-06
6.81829e-06
6.59353e-06
6.37551e-06
6.15847e-06
5.94744e-06
5.74106e-06
5.53943e-06
5.34109e-06
5.14973e-06
4.96157e-06
4.77896e-06
4.60371e-06
4.4325e-06
4.26378e-06
4.09923e-06
3.94061e-06
3.78774e-06
3.64047e-06
3.49789e-06
3.35992e-06
3.22488e-06
3.09461e-06
2.96959e-06
2.84916e-06
2.73423e-06
2.62224e-06
2.51517e-06
2.40991e-06
2.30905e-06
2.21051e-06
2.1185e-06
2.02913e-06
1.94416e-06
1.86195e-06
1.78279e-06
1.70756e-06
1.63561e-06
1.56805e-06
1.50572e-06
1.44977e-06
1.40112e-06
1.36462e-06
1.33945e-06
1.33201e-06
1.33823e-06
1.38665e-06
1.46183e-06
1.64395e-06
1.94581e-06
2.47102e-06
3.28175e-06
4.45509e-06
6.00615e-06
8.06104e-06
1.07461e-05
1.42685e-05
1.89786e-05
2.51987e-05
3.34287e-05
4.43666e-05
5.89143e-05
7.82133e-05
0.000103729
0.00013755
0.000182356
0.000241957
0.000321017
0.000425906
0.000565327
0.000750378
0.000995893
0.00131455
0.00173465
0.00229016
0.00301962
0.00401999
0.00535775
0.00707642
0.00723641
0.0054544
0.00411117
0.00310242
0.00235365
0.00178068
0.00134608
0.00101949
0.000768054
0.00057865
0.000436327
0.000329014
0.000248199
0.00018716
0.000141098
0.000106349
8.00479e-05
6.03676e-05
4.54829e-05
3.42152e-05
2.5784e-05
1.94274e-05
1.46124e-05
1.09696e-05
8.21323e-06
6.10513e-06
4.49029e-06
3.28666e-06
2.47579e-06
1.96884e-06
1.67346e-06
1.49738e-06
1.40218e-06
1.3554e-06
1.34148e-06
1.35103e-06
1.37668e-06
1.4171e-06
1.46672e-06
1.52427e-06
1.58775e-06
1.65754e-06
1.73174e-06
1.80911e-06
1.89019e-06
1.9749e-06
2.06249e-06
2.15405e-06
2.24843e-06
2.3479e-06
2.4497e-06
2.55691e-06
2.66476e-06
2.77702e-06
2.89596e-06
3.0251e-06
3.1572e-06
3.28893e-06
3.42023e-06
3.55917e-06
3.70615e-06
3.85681e-06
4.01025e-06
4.17345e-06
4.34105e-06
4.51149e-06
4.68816e-06
4.87286e-06
5.05933e-06
5.24939e-06
5.4474e-06
5.64836e-06
5.8554e-06
6.06773e-06
6.28416e-06
6.50425e-06
6.72936e-06
6.95854e-06
7.19367e-06
7.43129e-06
7.66964e-06
7.91179e-06
8.15715e-06
8.4086e-06
8.66005e-06
8.912e-06
9.16522e-06
9.41891e-06
9.67071e-06
9.92117e-06
1.01757e-05
1.04284e-05
1.06773e-05
1.09222e-05
1.11649e-05
1.14032e-05
1.16353e-05
1.18612e-05
1.20796e-05
1.22937e-05
1.25003e-05
1.26927e-05
1.28714e-05
1.30646e-05
1.32511e-05
1.33921e-05
1.3511e-05
1.36449e-05
1.37726e-05
1.38791e-05
1.39692e-05
1.40465e-05
1.41049e-05
1.41547e-05
1.41881e-05
1.42039e-05
1.42027e-05
1.41913e-05
1.41638e-05
1.41198e-05
1.40558e-05
1.39866e-05
1.38962e-05
1.37959e-05
1.3675e-05
1.3539e-05
1.3399e-05
1.32325e-05
1.30698e-05
1.28931e-05
1.27002e-05
1.25028e-05
1.22938e-05
1.20816e-05
1.18613e-05
1.16336e-05
1.13969e-05
1.11587e-05
1.09156e-05
1.06725e-05
1.04271e-05
1.01764e-05
9.92169e-06
9.66692e-06
9.41584e-06
9.16341e-06
8.91378e-06
8.66299e-06
8.41319e-06
8.1647e-06
7.91958e-06
7.67881e-06
7.44061e-06
7.20572e-06
6.9734e-06
6.74631e-06
6.52415e-06
6.30511e-06
6.08829e-06
5.87688e-06
5.67551e-06
5.48125e-06
5.28929e-06
5.1017e-06
4.91936e-06
4.74127e-06
4.56791e-06
4.40247e-06
4.24795e-06
4.09745e-06
3.94963e-06
3.8057e-06
3.67503e-06
3.55956e-06
3.45263e-06
3.35439e-06
3.26251e-06
3.1822e-06
3.12642e-06
3.11515e-06
3.11401e-06
3.09638e-06
3.05754e-06
3.04248e-06
3.05087e-06
3.07491e-06
3.10072e-06
3.0946e-06
3.09036e-06
3.11316e-06
3.18195e-06
3.27205e-06
3.36888e-06
3.46892e-06
3.57673e-06
3.69162e-06
3.81769e-06
3.95304e-06
4.09579e-06
4.24506e-06
4.40035e-06
4.56514e-06
4.73727e-06
4.91425e-06
5.09687e-06
5.28402e-06
5.47767e-06
5.67749e-06
5.88217e-06
6.09314e-06
6.30791e-06
6.52718e-06
6.75122e-06
6.9783e-06
7.20939e-06
7.44368e-06
7.68412e-06
7.92717e-06
8.17243e-06
8.4243e-06
8.67569e-06
8.92328e-06
9.17171e-06
9.42333e-06
9.67513e-06
9.92827e-06
1.01805e-05
1.04311e-05
1.06797e-05
1.09251e-05
1.11734e-05
1.14146e-05
1.16467e-05
1.1871e-05
1.20885e-05
1.22986e-05
1.2504e-05
1.27e-05
1.28887e-05
1.3066e-05
1.32338e-05
1.33897e-05
1.35343e-05
1.36654e-05
1.37822e-05
1.38866e-05
1.39816e-05
1.40531e-05
1.41077e-05
1.41686e-05
1.42006e-05
1.42105e-05
1.42146e-05
1.42034e-05
1.41723e-05
1.41261e-05
1.40703e-05
1.39975e-05
1.39069e-05
1.3802e-05
1.36846e-05
1.35546e-05
1.34125e-05
1.32582e-05
1.30915e-05
1.29161e-05
1.27372e-05
1.25431e-05
1.23172e-05
1.20882e-05
1.18909e-05
1.16876e-05
1.14392e-05
1.11766e-05
1.09416e-05
1.07181e-05
1.0472e-05
1.02112e-05
9.95467e-06
9.70162e-06
9.44928e-06
9.19566e-06
8.94215e-06
8.69005e-06
8.43747e-06
8.18729e-06
7.94162e-06
7.6981e-06
7.45761e-06
7.22072e-06
6.98783e-06
6.75744e-06
6.53272e-06
6.3109e-06
6.09412e-06
5.88302e-06
5.67607e-06
5.47405e-06
5.27674e-06
5.08359e-06
4.8977e-06
4.71853e-06
4.54235e-06
4.36848e-06
4.20036e-06
4.03672e-06
3.88055e-06
3.72926e-06
3.58309e-06
3.44225e-06
3.30299e-06
3.1702e-06
3.04073e-06
2.91826e-06
2.79981e-06
2.68584e-06
2.5752e-06
2.46847e-06
2.36404e-06
2.2629e-06
2.1683e-06
2.07725e-06
1.98953e-06
1.90595e-06
1.8254e-06
1.74875e-06
1.67719e-06
1.61007e-06
1.54976e-06
1.4969e-06
1.45411e-06
1.42278e-06
1.40446e-06
1.40318e-06
1.42189e-06
1.47327e-06
1.56332e-06
1.73814e-06
2.02585e-06
2.51541e-06
3.30626e-06
4.49776e-06
6.11248e-06
8.222e-06
1.0973e-05
1.46202e-05
1.94429e-05
2.5793e-05
3.4271e-05
4.54776e-05
6.03016e-05
8.00505e-05
0.000106256
0.00014091
0.000187028
0.000248209
0.000329312
0.000436912
0.000579678
0.000769083
0.00101935
0.00134668
0.00177409
0.00234265
0.00310696
0.00411108
0.00545428
0.00723652
0.00742852
0.0055992
0.00422031
0.00317106
0.00239416
0.00181813
0.00138112
0.00104521
0.000787427
0.000593755
0.000447522
0.000337309
0.000254011
0.000191369
0.000144305
0.000108774
8.20931e-05
6.18472e-05
4.65503e-05
3.51148e-05
2.64349e-05
1.98824e-05
1.49601e-05
1.12169e-05
8.38195e-06
6.19248e-06
4.5215e-06
3.30811e-06
2.52017e-06
2.03505e-06
1.75913e-06
1.57566e-06
1.47835e-06
1.42333e-06
1.40161e-06
1.40375e-06
1.42377e-06
1.45905e-06
1.50564e-06
1.56071e-06
1.62362e-06
1.69361e-06
1.7682e-06
1.84728e-06
1.9296e-06
2.01682e-06
2.10656e-06
2.20036e-06
2.29704e-06
2.39902e-06
2.50341e-06
2.61212e-06
2.72352e-06
2.83872e-06
2.96127e-06
3.09305e-06
3.22763e-06
3.36355e-06
3.49869e-06
3.64034e-06
3.79019e-06
3.94398e-06
4.10206e-06
4.26828e-06
4.4408e-06
4.61535e-06
4.79751e-06
4.98557e-06
5.17718e-06
5.37321e-06
5.57422e-06
5.78114e-06
5.99362e-06
6.212e-06
6.43285e-06
6.65866e-06
6.88911e-06
7.12411e-06
7.36582e-06
7.6097e-06
7.85342e-06
8.10188e-06
8.35267e-06
8.60974e-06
8.86839e-06
9.12742e-06
9.38765e-06
9.64604e-06
9.90352e-06
1.01617e-05
1.04225e-05
1.06815e-05
1.0937e-05
1.11874e-05
1.1435e-05
1.1681e-05
1.19195e-05
1.21507e-05
1.23769e-05
1.25971e-05
1.28068e-05
1.30025e-05
1.31857e-05
1.33882e-05
1.35846e-05
1.37277e-05
1.38435e-05
1.39823e-05
1.41158e-05
1.42267e-05
1.43204e-05
1.4397e-05
1.44573e-05
1.45082e-05
1.45461e-05
1.45642e-05
1.45622e-05
1.45505e-05
1.4523e-05
1.44779e-05
1.44141e-05
1.43426e-05
1.42518e-05
1.41494e-05
1.40245e-05
1.38845e-05
1.3741e-05
1.35686e-05
1.34009e-05
1.32214e-05
1.30224e-05
1.28188e-05
1.26012e-05
1.2386e-05
1.21601e-05
1.19267e-05
1.16828e-05
1.14394e-05
1.11906e-05
1.09414e-05
1.06899e-05
1.04324e-05
1.01717e-05
9.91112e-06
9.65449e-06
9.39444e-06
9.13947e-06
8.88324e-06
8.62729e-06
8.37162e-06
8.12197e-06
7.87608e-06
7.63134e-06
7.39176e-06
7.15393e-06
6.92114e-06
6.69342e-06
6.46921e-06
6.24736e-06
6.03138e-06
5.82594e-06
5.62804e-06
5.43256e-06
5.24156e-06
5.05567e-06
4.87364e-06
4.6974e-06
4.53024e-06
4.37393e-06
4.22239e-06
4.07354e-06
3.92992e-06
3.80107e-06
3.68923e-06
3.58846e-06
3.49757e-06
3.41592e-06
3.35036e-06
3.31549e-06
3.32484e-06
3.34836e-06
3.35403e-06
3.33775e-06
3.33323e-06
3.34209e-06
3.35502e-06
3.35651e-06
3.32637e-06
3.29687e-06
3.29905e-06
3.349e-06
3.42653e-06
3.51519e-06
3.60925e-06
3.71086e-06
3.82127e-06
3.94439e-06
4.0782e-06
4.2204e-06
4.36995e-06
4.52632e-06
4.69271e-06
4.86764e-06
5.04806e-06
5.2339e-06
5.42478e-06
5.62276e-06
5.8271e-06
6.03621e-06
6.25146e-06
6.47144e-06
6.69659e-06
6.92606e-06
7.1587e-06
7.39508e-06
7.6332e-06
7.87952e-06
8.12968e-06
8.38207e-06
8.63913e-06
8.89647e-06
9.14887e-06
9.40343e-06
9.66047e-06
9.91897e-06
1.01777e-05
1.04356e-05
1.0692e-05
1.09467e-05
1.11996e-05
1.14552e-05
1.17023e-05
1.19406e-05
1.21723e-05
1.23929e-05
1.26061e-05
1.28155e-05
1.30163e-05
1.32102e-05
1.3392e-05
1.35639e-05
1.37243e-05
1.38736e-05
1.40068e-05
1.4127e-05
1.42326e-05
1.43324e-05
1.44045e-05
1.44579e-05
1.45246e-05
1.45575e-05
1.45657e-05
1.45718e-05