/*--------------------------------*- C++ -*----------------------------------*\
| =========                 |                                                 |
| \\      /  F ield         | OpenFOAM: The Open Source CFD Toolbox           |
|  \\    /   O peration     | Version:  v2006                                 |
|   \\  /    A nd           | Website:  www.openfoam.com                      |
|    \\/     M anipulation  |                                                 |
\*---------------------------------------------------------------------------*/
FoamFile
{
    version     2.0;
    format      ascii;
    class       volScalarField;
    location    "25";
    object      ducSensor;
}
// * * * * * * * * * * * * * * * * * * * * * * * * * * * * * * * * * * * * * //

dimensions      [0 0 0 0 0 0 0];


internalField   nonuniform List<scalar> 
93840
(
0
0.0122198
0
0.0493388
0
0.00279474
0
0.0323313
0
0.235837
0
0.0435778
0.0716157
0
0.202484
0.698587
0.833651
0.405946
0
0
0.642104
0.84594
0.660078
0.449169
0
0
0.229833
0
0.0492822
0.125459
0.485394
0
0
0
0
0
0
0.00199572
0
0
0
0
0
0
0.00183642
0
0.00347625
0.00329669
0
0.0015043
0.0022065
0.00599162
0.00492021
0.00471557
0
0.00551072
0.00760827
0.00232536
0.00637928
0.00999527
0.00318678
0.00401221
0.000835617
0
0
0
0
0
0.00966772
0.00897206
0
0.000152778
0
0
0
0
0.00199622
0.01007
0.00236577
0.00645811
0
0.0199643
0.0162432
0
0
0
0.0104012
0
0
0
0.011407
0
0
0.00590063
0
0.000700348
0.00330826
0.000387164
0.00038358
0.00119394
0.000440529
0.000566806
0.00087568
0.00103582
0.000585552
0.000292623
0.000634172
0.000620522
0.000830985
0.000581091
0.000678711
0.000645539
0.000566108
0.000784234
0.000720635
0.000825951
0.00108179
0.00098287
0.000928554
0.000703903
0.00058366
0.000314179
0.000203408
0
0
0
0
0
0
0
0
0
0
0
0
0
0
0
0
0
0
0
0
0
0
0
0
0
0
0
0
0
0
0
0
0
0
0
0
0
0
0
0
0
0
0
0
0
0
0
0
0
0
0
0
0
0
0
0
0
0
0
0
0
0
0
0
0
0
0
0
0
0
0
0
0
0
0
0
0
0.000127915
0.000340264
0.000348315
0.000536089
0.000971734
0.000885323
0.000640845
0.0009315
0.000557409
0.000408937
0
2.31597e-05
0.000176716
6.0773e-05
0
0.000172328
0.000179901
0
0
0
0
0
0
0
0
8.94357e-05
5.89105e-05
3.53334e-05
0.000113839
0
0
0
0
0
0.000161014
0.00027659
0.000591361
0.000915942
0.00215118
0.00505511
0.00474761
0.00157178
0
0
7.366e-05
7.35271e-05
0.000215444
6.05394e-05
0.000376099
0.000661439
0.000361032
0.00106778
0.00105738
0.000899743
0.000602159
0.000898037
0.000787535
0.000162305
0.00088406
0.00248323
0
0.00134297
0.00182271
0
0.00295812
0.00191883
0.00553313
0
0.0321634
0.0953634
0.047925
0.0540305
0
0.00207303
0.0451704
0
0.01874
0
0.0381812
0
0
0
0.0684203
0
0.00649427
0
0
0
0
0
0.00296314
0
0
0
0
0.00517642
0.0113702
0.00494902
0.0275821
0.111503
0.0103148
0.0103559
0.00278479
0.00197374
0.00020744
0.00300041
0.00314811
0.00378257
0.00450444
0.00478367
0.00555601
0.00508699
0.00408832
0.00204098
8.71157e-05
0.000556606
0.000258043
0
0
0
0
0
0
0
0
0
0
0
0
0
0
0
0
0
0.0132393
0
0
0
0
0.0667684
0
0.287723
0
0
0.275837
0.360597
0.518441
0.378092
0
0
0.571156
0.864414
0.664827
0.229465
0
0.0448233
0.0440723
0
0
0
0.031378
0
0.00284445
0
0.0498346
0
0.00394553
0.0155791
0
0
0.00614327
0.00110479
0.0174755
0
0.0123268
0
0
0
0
0.0479139
0.0627609
0
0.169738
0.6714
0.742411
0.0729467
0.102054
0
0.511936
0.862679
0.751851
0.466426
0
0
0.395519
0.0706223
0.0433037
0
0.0573462
0
0.00511334
0
0
0
0
0
0.0298266
0
0
0
0.00913267
0.0113485
0.0166561
0
0.0246544
0.0229453
0.0441906
0.0306216
0.0305145
0.0450259
0.0386032
0.0586145
0.0449809
0.0291962
0.0206538
0.0303027
0
0
0.0551283
0.00483184
0.01713
0.039076
0.0162439
0
0.00614157
0.00580153
0
0
0.0138174
0.00122039
0.054168
0.00341622
0.00158605
0.03687
0.0177511
0
0
0
0.0176114
0
0
0.045777
0.0190046
0
0
0.0246675
0.0117203
0.021638
0
0.0201202
0.00335051
0
0.00198681
0.000976253
0
0.00336218
0
0
0
0
0
0.00115435
0
0
0
0.00193035
0.000416728
0.00172515
0.00114035
0.00128852
0.00209006
0.00238544
0.00308061
0.0040013
0.00575015
0.00651629
0.00560051
0.00427022
0.00289794
0.00105822
0
0
0
0
0
0
0
0
0
0
0
0
0
0
0
0
0
0
0
0
0
0
0
0
0
0
0
0
0
0
0
0
0
0
0
0
0
0
0
0
0
0
0
0
0
0
0
0
0
0
0
0
0
0
0
0.149769
0.492912
0.147034
0.264534
0.921459
0.765209
0.271443
0
0.157958
0
0
0
0
0
0
0
0
0
0
0
0
0
0
0.0045743
0
0.000375521
0.0108188
0.0031449
0.000271582
0.0141925
0.00900981
0.000544871
0
0
0
0
0
0
0
0
0
0
0
0
0
0
0
0
0
0
0
0
0
0
0
0
0
0
0.000694872
0.00235095
0.0072749
0.0218253
0.0347897
0.0210137
0.00727496
0
0
0.00109444
0.000304888
0
0.000244089
0.00297129
0.00103731
0.00266615
0.00318394
0.0050363
0.00387395
0.000903242
0.00351866
0.00108692
0
0.00227789
0.00369655
0
0.000620064
0.0151548
0.0158922
0
0.0250162
0
0.0154427
0
0
0
0.0765833
0.0387514
0
0.16968
0.19756
0
0.172736
0
0.156732
0.17329
0
0.146685
0.718285
0
0.092736
0
0
0.0858619
0.0798645
0.12566
0.0543659
0
0.37731
0
0
0
0
0
0
0.0100187
0.0153173
0.0136334
0.00118402
0
0
0
0
0.0115975
0.0405883
0.0591884
0.047979
0.0427642
0.0192136
0.00175296
0.00352426
0
0
0
0
0
0
0
0
0
0
0
0
0
0
0
0
0
0
0
0
0.229338
0
0
0.180624
0.119836
0.456578
0.187873
0.0278895
0
0.190396
0.339548
0.503669
0
0
0.720128
0.856936
0.645964
0.282518
0
0.0583405
0.0486224
0.0191267
0
0.0122383
0
0.0213957
0
0.0101863
0
0.00614393
0.00407184
0
0.00610467
0
0.00878575
0.0339186
0.020516
0.0157848
0.0325892
0
0.0153088
0
0.0055231
0.0644376
0.0373436
0
0.133121
0.60397
0.634689
0
0
0
0.614395
0.909583
0.866444
0.458936
0
0
0.285133
0
0.0848716
0.115672
0.000492944
0.0883812
0
0
0
0
0
0
0
0
0
0.0206766
0
0
0
0
0.00739432
0.0136316
0.0131152
0.0167927
0.0136592
0.024135
0.0261261
0.0225463
0.0214996
0.0225817
0.0182235
0.00912311
0.0244295
0.0350109
0.0109656
0
0.00235757
0
0
0
0.00155568
0.0181249
0.0250991
0.0534475
0.0050588
0
0
0
0
0
0.00497504
0.0393058
0
0
0
0.0256374
0.00748507
0
0
0.00175509
0.0336523
0.00641319
0
0
0.0366463
0
0.0263562
0
0.0235964
0
0.00740062
0.00521048
0.00496671
0.000373079
0.00521934
0.00521351
0.00387818
0.0075557
0.00326129
0.00230786
0.00470395
0.0053623
0.00511252
0.00677069
0.00527094
0.00492201
0.00686029
0.00631081
0.00761649
0.00892602
0.0106017
0.0125961
0.0108261
0.00895729
0.00715424
0.00462373
0.00230775
0.000165703
0
0
0
0
0
0
0
0
0
0
0
0
0
0
0
0
0
0
0
0
0
0
0
0
0
0
0
0
0
0
0
0
0
0
0
0
0
0
0
0
0
0
0
0
0
0
0
0
0
0
0
0
0
0
0
0
0
0
0
0
0
0
0
0
0
0
0
0
0
0
0
0
0
0
0
0
0.0261238
0.0190099
0.0451769
0.0405977
0.0802161
0.0289857
0.0490697
0.0383116
0.0217746
0.0135619
0
0.00150559
0
0
0
0
0.00246453
0
0
0
0
0
0
0.000126734
0
0
0
0
0
0
0
0
0
0
0.000112411
0.00262687
0.00494536
0.014061
0.0312787
0.0431249
0.0476714
0.0130612
0
0
0.000636692
0
0
0.00379057
0.00360628
0.00394161
0.00640984
0.00536708
0.0111501
0.00725932
0.00674702
0.00734185
0.00155305
0.003945
0.00857661
0
0
0.0309559
0
0
0.0206346
0
0
0.0513898
0.0268667
0.11891
0
0
0.162001
0
0.129714
0.579481
0
0.668181
0
0.121455
0.104853
0
0.253649
0
0
0
0
0
0
0
0.00411341
0
0
0
0
0.0048593
0.036635
0.0466801
0.0349665
0.0435389
0.0946273
0.0611629
0.0477948
0.0200538
0.0211483
0.0229838
0.0346571
0.0453316
0.0834355
0.172046
0.278141
0.236178
0.229863
0.139406
0.216118
0.423913
0
0
0
0
0
0
0
0
0
0
0
0
0
0
0
0
0
0
0
0
0
0
0
0.180078
0
0.922337
0.285745
0
0
0.0293944
0.264627
0.400908
0
0
0.767242
0.764796
0.555185
0.296239
0
0.0861177
0.0493792
0
0
0.0156991
0
0
0
0.0251408
0.00233818
0
0
0
0
0.106788
0.00475286
0
0
0.038971
0
0
0.0205095
0.0120741
0
0.0748445
0.0385972
0
0.073172
0.541996
0.607264
0
0.143306
0
0.630892
0.890679
0.881775
0.472831
0
0
0.117172
0.00943177
0.0466988
0.0165537
0.0531548
0.0130611
0
0
0
0.0257933
0
0
0
0.00267137
0
0
0
0
0.0156159
0.00892187
0.0194599
0.0182584
0.0198277
0.0243328
0.0173297
0.014107
0.0158532
0.00624622
0.0170419
0.0184258
0.00700912
0.0143573
0.0109773
0.0154245
0.00374392
0.000813502
0
0
0.00729001
0.00450622
0
0.00100607
0.00488512
0.00355187
0.0212313
0
0
0
0
0
0
0.0126882
0
0
0
0.00787312
0.016723
0
0
0
0.0138859
0
0.00278775
0.00719367
0.000818465
0
0.00656757
0.00310512
9.36802e-05
0.00143664
0.00718679
0
0.00919663
0
0.00452694
0.00255987
0.00348348
0.00457788
0.00217646
0.000978117
0.00335764
0.00338026
0.00384752
0.00440391
0.00400753
0.00355349
0.0049154
0.00499925
0.00593894
0.00744418
0.0096114
0.0112638
0.0103344
0.0084339
0.00697419
0.00404614
0.00189075
0
0
0
0
0
0
0
0
0
0
0
0
0
0
0
0
0
0
0
0
0
0
0
0
0
0
0
0
0
0
0
0
0
0
0
0
0
0
0
0
0
0
0
0
0
0
0
0
0
0
0
0
0
0
0
0
0
0
0.198828
0.417143
0
0
0
0
0
0
0
0
0
0
0
0
0
0
0
0
0
0.269092
0.650404
0.497136
0.453403
0.860714
0.666074
0.705228
0.217002
0.630871
0.066393
0.283356
0
0.018952
0.00625865
0
0
0
0
0
0
0
0
0
0.00116781
0
0
0
0
0
0
0
0
0
0
0
0.00427197
0.00512583
0.0130022
0.0382866
0.0402094
0.0592611
0.010038
0
0
0.000522397
0
0
0.00110333
0.00274153
0.00183551
0.00321831
0.00570339
0.00778421
0.0050652
0.00434034
0.00344804
0.00532768
0
0.00736414
0.00332992
0
0.0301324
0
0
0.0234339
0.00870622
0
0
0.0295427
0.117444
0
0
0.00072845
0
0.103596
0
0
0.291974
0.035417
0.028202
0.0223417
0
0.107805
0.0130327
0
0.021611
0
0
0
0
0
0
0
0
0
0
0.0014709
0.00968581
0.0154441
0.200132
0.138752
0.133071
0.0752856
0.0161618
0.0263555
0.00904566
0.0573359
0.127712
0.502166
0.530876
0.408331
0.299871
0.221692
0.142859
0.139152
0.0851186
0
0
0
0
0
0
0
0
0
0
0
0
0
0
0
0
0
0
0
0
0
0
0.29754
0.730559
0.326975
0.604898
0.222828
0
0
0.0596618
0.230576
0.330819
0.198286
0
0.642633
0.675255
0.403241
0.280121
0.014856
0.0743648
0.0163631
0
0
0.0285975
0.00410669
0.0513237
0.00744381
0.00912678
0.0418406
0.00483133
0
0.00406676
0
0.0289874
0.0130117
0.0393088
0.0111914
0.0122849
0
0.00632084
0
0.00493479
0
0.0992199
0.0239985
0
0.042105
0.437401
0.555255
0
0
0.158163
0.538643
0.838197
0.772502
0.0301908
0
0
0.192537
0.0233682
0.0751102
0.0643349
0.00324122
0.0219296
0.0243348
0
0
0
0
0
0
0
0
0
0
0.0048316
0.0166258
0.0102076
0.0221891
0.0233007
0.0231376
0.030825
0.0284744
0.0207904
0.0209356
0.0202884
0.0191023
0.018449
0.00851101
0.0149902
0.00311285
0.00461139
8.88011e-05
0
0
0
0
0
0
0
0
0
0
0
0
0.0129341
0.00574139
0.014597
0.0117917
0
0
0
0.00131895
0
0.0010099
0
0.0158211
0
0
0
0.0180417
0.0105106
0
0.00448745
0
0.0185886
0
0.00463983
0
0.00506295
0.00203875
0.000104626
0.00389796
0
0.00276808
0.0051194
0.00284166
0.00113338
0.00191883
0.00429024
0.00323652
0.00380744
0.00391453
0.00411019
0.00444416
0.00596588
0.00664433
0.00920443
0.0127698
0.0153292
0.0152221
0.0134573
0.0118906
0.00729157
0.00400187
0
0
0
0
0
0
0
0
0
0
0
0
0
0
0
0
0
0
0
0
0
0
0
0
0
0
0
0
0
0
0
0
0
0
0
0
0
0
0
0
0
0
0
0
0
0
0
0
0
0
0
0
0
0
0
0
0
0
0.254718
0
0
0
0
0
0
0
0
0
0
0
0
0
0
0
0
0
0
0.378474
0.295966
0.160741
0.520482
0.536195
0.509168
0.697901
0.671688
0.489315
0.393073
0.23152
0.0484515
0.0317873
0
0
0
0
0
0
0
0
0
0
0
0.00392496
0.00429385
0
0
0.00330207
0
0
0
0
0
0.00563605
0.00437481
0.0171295
0.0175988
0.0589701
0.0729667
0.0833895
0.0160894
0
0
0
0
0
0
0.00287501
0.00135944
0.00345418
0.00456949
0.00678893
0.00438407
0.00274256
0.0040636
0.00163312
0.00242312
0.00354689
0.00484826
0.000191357
0.0174132
0.00370008
0.00793124
0
0.0325314
0
0
0.0590606
0
0
0.0162236
0
0
0.110352
0
0
0.145408
0.0531728
0
0.00990033
0
0.179238
0.700622
0.298507
0
0
0
0
0
0
0
0
0
0
0.00374595
0.00748516
0
0.0238289
0.0680214
0.271137
0.19313
0.0931452
0.0239089
0.0245983
0.021114
0.278176
0.904638
0.28704
0.167126
0.190995
0.142246
0.111166
0.0993382
0.125451
0.0454605
0.0144445
0
0
0
0
0
0
0
0
0
0
0
0
0
0
0
0
0
0
0
0
0
0.300803
0.212038
0.0806988
0.714937
0.187282
0
0
0.158328
0.250044
0.325966
0.230599
0
0.529036
0.613768
0.277859
0.28187
0.0553001
0.0799922
0.0424355
0
0.0171844
0
0.00711851
0
0.014519
0
0
0.00685207
0.0518648
0.00895244
0.0125377
0
0.00577743
0.0150301
0
0
0.0473176
0
0
0
0.0357392
0.101324
0.00144127
0
0.0377466
0.358255
0
0
0
0.303458
0.516801
0.857901
0.829165
0
0
0
0.220296
0
0.0837776
0.144146
0.0798127
0.0788375
0.0567818
0
0.0558533
0
0.00167865
0
0
0
0.00459392
0
0.00834454
0
0.00680271
0.0156568
0.0227991
0.0208285
0.0264391
0.0248693
0.0233534
0.0299508
0.0263928
0.026525
0.00912991
0.0110169
0.0192631
0
0.0098878
0.0112483
0.0111435
0.0067706
0
0
0
0.0121839
0
0
0.00175219
0
0
0
0
0
0
0
0
0
0.00230607
0.00847154
0.00153942
0
0.012918
0.00504243
0.0128007
0
0
0.0131214
0
0
0.0218485
0.00157583
0
0
0.00975054
0
0.00198326
0.00421935
0
0.00585748
0
0.00152983
0.00253405
0.00480521
0.0041726
0.00116253
0.00268932
0.00615893
0.00449961
0.00739687
0.00693796
0.00784478
0.0108777
0.013132
0.0155097
0.0244908
0.0336903
0.0472203
0.05043
0.0451118
0.0470808
0.0374398
0.0195955
0.00743723
0
0
0
0
0
0
0
0
0
0
0
0
0
0
0
0
0
0
0
0
0
0
0
0
0
0
0
0
0
0
0
0
0
0
0
0
0
0
0
0
0
0
0
0
0
0
0
0
0
0
0
0
0
0
0
0
0
0.477103
0.963253
0
0
0
0
0
0
0
0
0
0
0
0
0
0
0
0
0
0
0.36948
0.304554
0.271561
0.56956
0.533251
0.523532
0.471996
0.496373
0.27148
0.300682
0.0056761
0.184941
0
0.300864
0.0948512
0
0
0
0
0
0
0
0
0
0.0110342
0.099266
0.0473548
0.0658236
0
0
0
0
0
0.0136712
0.0409667
0.0365684
0.11502
0.170027
0.182329
0.21651
0.0310321
0
0
0.000399068
0.00307776
3.75081e-05
0.0060254
0.0059851
0.00570208
0.00911498
0.0126738
0.00890394
0.00614555
0.00649155
0.00367071
0
0.00284915
0.0023149
0
0.00394475
0
0
2.66316e-05
0.00317481
0.000409557
0.00941773
0
0.120796
0
0.0101921
0.122196
0
0
0.0290446
0
0.0108743
0.00216014
0.150916
0
0
0
0.911183
0.0177449
0
0
0
0
0
0
0
0.000789745
0
0
0
0.00792944
0.0213081
0.0151503
0.190702
0.539935
0.830946
0.717916
0.312669
0.0852398
0.0966906
0.189567
0.023211
0.0542174
0.087394
0.0839224
0.108917
0.100103
0.0801772
0.0742603
0.0729351
0.0382616
0.0225857
0
0
0
0
0
0
0
0
0
0
0
0
0
0
0
0
0
0
0
0
0
0.203183
0.145732
0.26025
0.760462
0.130562
0.0083776
0
0.169974
0.199315
0.217502
0.255812
0
0.488657
0.514658
0.106345
0.258324
0.00653606
0.0978434
0.0407283
0.0119968
0
0.0263407
0.00953531
0.0421627
0
0
0
0.00692046
0
0
0.00207189
0.00913381
0.0113342
0
0
0
0.00754806
0.0155397
0.000434831
0.0208721
0
0.125358
0
0
0.0359364
0.378065
0
0
0.120339
0.265008
0.462831
0.801466
0.952155
0.938215
0
0
0.0533994
0.37654
0.0418486
0.137662
0.12239
0.144399
0.0130371
0.0990835
0
0
0
0
0
0.00740666
0
0.0302851
0
0.0135872
0.035034
0.0238319
0.0320798
0.0229265
0.0318674
0.0252663
0.0244945
0.0328507
0.0234404
0.0226106
0.0158879
0.00819569
0.0290249
0.00624528
0.0137194
0.00699821
0.00901029
0.0285873
0.000744208
0.0020688
0.0138714
0.00469536
0
0
0
0
0
0.00266406
0
0
0
0.00110889
0
0
0.0146346
0.00598191
0
0.0112215
0
0
0
0
0
0.0121689
0
0
0
0.012919
0
0.00584594
0.00205224
0.0001939
0.00950367
0
0.00268158
0.00571232
0.000387078
0.00637074
0.00656625
0.00810641
0.00706852
0.00588564
0.0085961
0.0135306
0.0210009
0.0233969
0.0212416
0.0490241
0.0373391
0.0559464
0.144183
0.0826815
0.512009
0.197134
0.31586
0.481254
0.243457
0.068019
0.197328
0
0
0
0
0
0
0
0
0
0
0
0
0
0
0
0
0
0
0
0
0
0
0
0
0
0
0
0
0
0
0
0
0
0
0
0
0
0
0
0
0
0
0
0
0
0
0
0
0
0
0
0
0
0
0
0
0.138543
0.393854
0.386149
0
0
0
0
0
0
0
0
0
0
0
0
0
0
0
0
0
0
0
0.679336
0.102826
0.516548
0.443846
0.72886
0.716077
0.772577
0.388171
0.381231
0.0600163
0.159832
0.138939
0
0
0
0.256714
0
0
0
0
0
0
0.225933
0
0
0
0.0913237
0.0654306
0.041792
0
0
0
0
0.0477793
0.338941
0.263295
0.697325
0.510658
0.423611
0.496288
0.114929
0
0
0.00775474
0.00685428
0.00759597
0.00113543
0.259365
0.01475
0.0221176
0.0814437
0.0183285
0.0511174
0.0129785
0.00721794
0.0243375
0.0102344
0.00594769
0.0116485
0.00868463
0
0.00772536
0
0.00949442
0
0.014976
0.00133133
0.016246
0.0224762
0.00744074
0.841151
0
0
0.00780877
0.0486688
0.0425112
0
0.0217928
0
0
0
0.846564
0.103353
0
0
0
0
0
0
0
0
0
0
0.00247783
0.0079716
0.017893
0.102516
0.872376
0.874195
0.653809
0.566868
0.456799
0.236319
0
0.0802818
0.0282193
0.024197
0.0366203
0.0314802
0.0339035
0.0551482
0.0774131
0.0440516
0.0412436
0.0173857
0.0158238
0.00262288
0
0
0
0
0
0
0
0
0
0
0
0
0
0
0
0
0
0
0
0
0.0396468
0.0849004
0.279393
0.76147
0.0499938
0.0287803
0
0.0843344
0.143792
0.149078
0
0
0.496162
0.416763
0
0.203957
0.126893
0.125963
0
0
0.0123813
0.0299286
0.0044755
0.00500444
0.00599973
0.0355718
0
0
0
0
0
0.0229261
0.00155395
0
0.0384246
0
0
0
0.0431231
0
0.00539917
0.0990282
0
0
0.0996563
0.462557
0
0
0.507042
0.258067
0.369393
0.542256
0.918476
0
0
0.6509
0
0.303943
0.239686
0.339701
0.333543
0.31921
0.186028
0
0
0
0
0
0
0.0170955
0
0
0.0440371
0.0258588
0.0542512
0.0643941
0.0384774
0.0574153
0.0447998
0.0497862
0.0473317
0.0516176
0.0520492
0.0393201
0.0360279
0.0206371
0.0102208
0.0259309
0.00366907
0
0.000166779
0.00983182
0.0172852
0.00179051
0.0039695
0
0
0.000627902
0
0
0
0.0023542
0.000624994
0.0172792
0.00188306
0
0.00583822
0
0
0
0.000412857
0
0
0.00428048
0
0
0.00426359
0
0.0270248
0.0195443
0
0.0124399
0.00172472
0.00878269
0
0.0219016
0.000456555
0.00393812
0.0159274
0.00156119
0.0101502
0.0110813
0.0327761
0.0229093
0.0341853
0.0401472
0.031101
0.102645
0.097211
0.0661169
0.483555
0.0665272
0.261557
0.282914
0.306269
0.44895
0.699601
0.456442
0.629096
0.542447
0.471724
0.211607
0.358848
0
0
0
0
0
0
0
0
0
0
0
0
0
0
0
0
0
0
0
0
0
0
0
0
0
0
0
0
0
0
0
0
0
0
0
0
0
0
0
0
0
0
0
0
0
0
0
0
0
0
0
0
0
0
0
0
0
0
0.457215
0.526905
0
0
0
0
0
0
0
0
0
0
0
0
0
0
0
0
0
0
0
0.109087
0.28081
0.244788
0.558387
0.471682
0.585384
0.348716
0.375467
0.0779992
0.251452
0
0.246352
0
0
0.156525
0
0
0
0
0
0
0
0.0656496
0.235821
0.052682
0.113279
0.114836
0
0
0
0
0
0.111202
0.305741
0.460344
0.767162
0.750566
0.794048
0.671969
0.399314
0
0
0.133647
0
0
0.0344218
0.0942056
0.141359
0
0.321471
0.123493
0.101148
0.156837
0.0166868
0
0.420142
0.00726674
0
0.269736
0
0.0218342
0.00945882
0.007862
0
0
0.0154556
0
0.0034158
0
0.0281281
0
0.00674849
0.0572119
0.0311791
0
0
0
0.123006
0.0106334
0
0.913816
0.613513
0.107712
0
0
0
0
0
0
0
0
0.00153039
0.00941988
0.0197019
0.00800176
0.393465
0.319413
0.496907
0.299535
0.179398
0.0249917
0.0149524
0
0.0486084
0.0224003
0.027081
0.038376
0.029501
0.0181513
0.0254374
0.0509612
0.0334877
0.0271097
0
0.0176197
0
0
0
0
0
0
0
0
0
0
0
0
0
0
0
0
0
0
0
0
0
0.141616
0.102988
0.326745
0.708074
0.00442013
0
0
0.0493269
0.00240714
0.150358
0
0
0.378104
0.312669
0
0.135675
0.13442
0.128975
0
0
0
0
0.00378667
0
0
0.0431423
0.0212092
0
0.0287757
0.00688617
0
0
0.00108276
0
0
0
0
0.00475037
0
0
0
0.0781942
0
0
0
0.319475
0
0
0.486372
0.238161
0.30757
0
0
0
0
0.458617
0.326553
0.627972
0.567427
0.653884
0.420078
0.328021
0.0485007
0
0
0
0
0
0
0
0
0.0476476
0.0538666
0.101105
0.103951
0.127618
0.106964
0.126861
0.0981617
0.106863
0.0893903
0.0823654
0.0837186
0.0681508
0.0489034
0.0458242
0.00826208
0.0252005
0.00356053
0
0.00535796
0
0.00520641
0.00438201
0
0
0
0
0.002103
0
0.00470378
0.000488162
0.0196931
0.00834874
0
0
0
0
0.00269324
0
0.00826234
0
0
0.0316232
0.00588802
0.00536473
0.00435937
0.00800937
0.0269052
0
0
0.025356
0.0444863
0
0.0306355
0.0110711
0.00586861
0.0121181
0.0109119
0.0193734
0.0304322
0.0890098
0.0952133
0.121534
0.332235
0.0119633
0.330832
0.22373
0.154746
0.248124
0.301403
0.2235
0.411793
0.424545
0.465062
0.518775
0.685218
0.687222
0.65894
0.564992
0.535235
0.169248
0.365084
0
0
0
0
0
0
0
0
0
0
0
0
0
0
0
0
0
0
0
0
0
0
0
0
0
0
0
0
0
0
0
0
0
0
0
0
0
0
0
0
0
0
0
0
0
0
0
0
0
0
0
0
0
0
0
0
0.328893
0.637149
0.399543
0
0.0715443
0
0
0
0
0
0
0
0
0
0
0
0
0
0
0
0
0
0.0311347
0.259657
0.0638795
0.500224
0.47688
0.585371
0.48335
0.474605
0.239817
0.198249
0.0808016
0.0264415
0
0
0
0
0
0
0
0
0
0
0
0
0.128454
0.0953706
0.00947988
0.0635588
0.0044681
0
0
0
0
0.118563
0.315567
0.531396
0.725013
0.9133
0.937176
0.83297
0.762278
0
0
0.217863
0
0.323574
0
0.154637
0.251357
0.162923
0.363908
0.369054
0.22473
0.254504
0.371498
0
0.134734
0.166722
0
0.798997
0.0185916
0.00126838
0.072587
0.00218647
0.0243729
0
0.0340194
0.00982392
0
0
0.00370482
0.00297142
0
0
0.00239587
0
0.00646
0.0320748
0
0
0
0.171245
0.196126
0
0
0
0
0
0
0
0.00379432
0
0.0156999
0.0117722
0.00926456
0.0198369
0.235397
0.185133
0.213516
0.133893
0.089502
0
0
0.00668132
0
0.00251425
0.0104935
0.0166127
0.0258976
0.0249093
0.0130161
0.0239606
0.0193903
0.0267295
0.0161331
0.00518033
0.018121
0
0
0
0
0
0
0
0
0
0
0
0
0
0
0
0
0
0
0.00564874
0.0455434
0.0794903
0.0622713
0.309419
0.586602
0.120932
0.0499252
0.0205541
0.0508765
0.00894064
0.00311532
0
0.0239448
0.385191
0.281521
0
0.0798323
0.188655
0.124802
0
0
0.0132947
0.0593618
0.00520154
0
0
0
0.00925115
0.00183337
0
0.0206991
0.0122673
0.0677215
0.00315952
0
0
0.0183305
0.0344723
0
0.00453071
0.0385783
0
0.0451303
0
0
0
0
0
0
0
0.253983
0.307489
0
0
0
0
0.297276
0.365023
0.823736
0.56365
0.635378
0.448169
0.384748
0.0763021
0
0
0
0
0
0
0
0.199336
0
0.108219
0.247963
0.232409
0.299207
0.288643
0.305165
0.292148
0.266623
0.231641
0.18851
0.169199
0.141948
0.0715004
0.0717512
0.0535153
0.0132411
0.0179862
0.00197629
0
0
0.0130783
0.0409704
0
0.00150282
0
0
0
0
0
0
0.0157456
0
0
0
0
0
0.00677101
0.0334671
0
0
0
0
0.0343029
0.00666583
0
0.122703
0
0
0.0374779
0
0.0574912
0
0.0543736
0.142682
0.133283
0.0220754
0.0804576
0.0112602
0.129035
0.180523
0.221549
0.286993
0.198101
0.142125
0.202074
0.28021
0.294594
0.35531
0.360122
0.382613
0.4328
0.438811
0.469172
0.533274
0.665582
0.677753
0.630339
0.546811
0.515881
0.206105
0.321075
0
0
0
0
0
0
0
0
0
0
0
0
0
0
0
0
0
0
0
0
0
0
0
0
0
0
0
0
0
0
0
0
0
0
0
0
0
0
0
0
0
0
0
0
0
0
0
0
0
0
0
0
0
0
0
0
0.184429
0.332758
0.512313
0.671043
0.25039
0
0
0
0
0
0
0
0
0
0
0
0
0
0
0
0
0
0.046899
0.461305
0.0516144
0.0323548
0.288553
0.372606
0.481365
0.444002
0.213248
0
0.222394
0.0666016
0.113209
0
0
0
0
0
0
0
0
0.0956237
0.00300043
0.16124
0.140129
0
0.140005
0
0.0783066
0
0
0
0
0.110356
0.308783
0.555247
0.705633
0.951841
0.965148
0.946868
0.815787
0
0
0.237385
0
0.271509
0.00678678
0.285085
0.320456
0.262873
0.656561
0.611198
0.406422
0.37944
0.270074
0.1827
0.185497
0.583318
0.24553
0.0569648
0.131852
0
0
0.0397535
0.0129945
0.704228
0.0951272
0.0347054
0
0.0389308
0
0.00435218
0
0
0.0121215
0
0.000613937
0.0453024
0
0.0691365
0
0.0751777
0.525938
0
0
0
0
0
0.0903784
0
0.0846431
0.0232733
0.0222134
0.0202371
0
0.552225
0.141966
0.125812
0.117549
0.0826794
0.0912667
0.096817
0
0.00406745
0
0.00767773
0.0130907
0.00823532
0.0153822
0.00742889
0.00477847
0.0345044
0.0206779
0.0224437
0.0205841
0.0293812
0.0124151
0
0
0
0
0
0
0
0
0
0
0
0
0
0
0
0
0
0
0.00496259
0.0258397
0.196518
0.106836
0.280179
0.457632
0.138109
0.015772
0.00362701
0.0626035
0.0259414
0
0
0.0713459
0.399066
0.256582
0
0.0363249
0.232576
0.138972
0
0
0
0
0
0.0132363
0.0181421
0
0.0110937
0.00311807
0
0
0.00199553
0.0387246
0.000947706
0.00753733
0
0.0121312
0
0.00979126
0.00104838
0
0.028328
0.0455565
0
0
0
0
0
0.0460789
0
0.125659
0.406004
0.14701
0
0
0
0.984015
0.542274
0.697628
0.811909
0.52387
0.185314
0.409407
0
0
0
0
0
0.0191537
0
0.0828496
0
0.308631
0.250219
0.423098
0.400769
0.461109
0.461573
0.511546
0.513544
0.487116
0.431931
0.381172
0.34456
0.271856
0.158441
0.12335
0.119178
0.0757991
0.018324
0.0060462
0
0.0347136
0.0306099
0.0690855
0.0624479
0.0243735
0
0
0
0
0
0
0
0
0.0187593
0
0.00185876
0.0395346
0
0
0
0.0222444
0.0132623
0
0
0
0
0.0171396
0.0685748
0.0465289
0.0869222
0.0182554
0
0.476662
0.0929921
0.0604834
0.143831
0.19055
0.221716
0.073774
0.23213
0.200684
0.16705
0.334697
0.253565
0.168304
0.329525
0.348584
0.354107
0.392855
0.383613
0.382025
0.430896
0.434589
0.514906
0.584286
0.673186
0.683845
0.645434
0.553956
0.512131
0.205762
0.310292
0
0
0
0
0
0
0
0
0
0
0
0
0
0
0
0
0
0
0
0
0
0
0
0
0
0
0
0
0
0
0
0
0
0
0
0
0
0
0
0
0
0
0
0
0
0
0
0
0
0
0
0
0
0
0
0
0.319947
0.451305
0.674401
0.550454
0.586026
0
0
0
0
0
0
0
0
0
0
0
0
0
0
0
0
0
0
0
0.556616
0.100137
0.356157
0.374164
0.529907
0.427828
0.230342
0
0.0108222
0.086702
0
0
0
0
0
0
0
0
0
0
0.0466668
0
0.031298
0.0528708
0.0703424
0.0757357
0
0
0
0
0
0
0.253618
0.545201
0.668838
0.952276
0.981642
0.981154
0.831517
0
0
0.281204
0
0.26245
0.04139
0.323086
0.384708
0.432113
0.698827
0.702439
0.51033
0.427799
0.442074
0.172751
0.238772
0.495163
0.177515
0
0.215087
0.131264
0
0.113607
0
0.0975789
0.379965
0
0.00704924
0.0780347
0
0
0.00434518
0.0188623
0.0116149
0
0
0.0494348
0.0107904
0.0685605
0
0.0265046
0.171029
0.00982942
0
0
0
0
0.083726
0
0
0.17055
0.079289
0.0497185
0.210591
0.566674
0.15829
0.0999834
0.0966177
0.049121
0.0119969
0.00960724
0
0
0
0
0
0.00110951
0.0255071
0.043112
0.0374734
0.0439237
0.00706473
0.0185867
0.0409703
0.00752721
0.00912444
0
0
0
0
0
0
0
0
0
0
0
0
0
0
0
0
0
0.0184285
0.0174682
0.00823812
0.156653
0.0935881
0.270149
0.260115
0
0
0.0113364
0.0298656
0.0554612
0.0380819
0
0.0423692
0.432167
0.216728
0
0.00268713
0.23733
0.161259
0
0
0.0170015
0
0.00939229
0
0
0
0.0136791
0.0129727
0.0264326
0
0
0
0.0192199
0.0506166
0.0361697
0
0.0204606
0
0.00874054
0.0658439
0
0.0476942
0
0.061481
0
0
0
0.179232
0
0.00144559
0.448706
0.152302
0
0
0.950666
0.995735
0.655304
0
0.387497
0.623001
0.13805
0.242507
0
0
0.160381
0
0
0
0
0.0321443
0.18385
0.568227
0.550057
0.617977
0.595492
0.608574
0.615323
0.630641
0.606082
0.549353
0.487572
0.430553
0.397499
0.343988
0.253245
0.198997
0.0770405
0.0885192
0.059968
0.14839
0.0187904
0
0
0
0.0782927
0.0313818
0
0
0
0
0.0297192
0
0
0
0
0
0
0
0.0764068
0
0.0849167
0
0
0.480423
0
0
0.00607424
0
0.47845
0.205043
0.100662
0.17927
0
0.471666
0.143059
0.00156996
0.189455
0.226023
0.261671
0.0989066
0.212476
0.208434
0.204911
0.338332
0.312896
0.241602
0.308959
0.332363
0.368772
0.379835
0.36728
0.371537
0.428346
0.42643
0.496447
0.572969
0.672294
0.684519
0.642791
0.539444
0.484656
0.281885
0.163473
0
0
0
0
0
0
0
0
0
0
0
0
0
0
0
0
0
0
0
0
0
0
0
0
0
0
0
0
0
0
0
0
0
0
0
0
0
0
0
0
0
0
0
0
0
0
0
0
0
0
0
0
0
0
0
0
0.341075
0.43932
0.711628
0.831113
0.861711
0
0
0
0
0
0
0
0
0
0
0
0
0
0
0
0
0
0
0
0
0.39058
0.503914
0.362459
0.452539
0.375209
0.164217
0.168246
0
0.175544
0
0
0
0
0
0
0
0
0
0
0
0.104439
0.106673
0.13853
0.0323504
0.107208
0
0
0
0
0
0.00729408
0.249153
0.521276
0.658862
0.953298
0.98702
0.985138
0.841018
0
0
0.276667
0
0.251766
0
0.315434
0.402002
0.423836
0.716771
0.713678
0.523021
0.468052
0.449896
0.271124
0.292682
0.475336
0.57567
0.0574456
0.66409
0.725784
0.00181147
0.252918
0
0
0.11261
0
0.00644072
0.0856707
0.0111564
0.00888157
0.00302751
0.0170512
0
0
0.00464589
0
0
0
0
0.0664881
0.0969456
0
0
0
0
0
0
0.84672
0.644968
0.926487
0.593331
0.578082
0.894664
0.33767
0.145409
0.0902179
0.0938844
0.0298221
0.0253327
0
0
0
0
0
0
0
0.00395694
0.0251606
0.0413125
0.0358877
0.0183653
0.0669368
0.0306084
0.00366593
0.0013309
0.0044576
0.00375762
0
0
0
0
0
0
0
0
0
0
0
0
0
0
0
0
0.0509869
0.0553832
0.11545
0.100378
0.211885
0.0354016
0
0
0.0112312
0.00893147
0
0.275463
0
0
0.27865
0.212349
0
0
0.247996
0.176878
0
0
0
0.00733755
0.00278639
0
0.0346451
0.0233784
0
0
0.00299013
0.00065448
0
0.00188378
0
0
0
0.0185002
0
0.000638929
0
0
0
0.04147
0
0.0769828
0
0
0
0.162031
0
0.246151
0.518391
0.422489
0.577763
0.87872
0.933055
0.971721
0.509985
0
0
0.443444
0.274341
0.00353485
0
0
0
0
0
0
0
0.69051
0.746669
0.858307
0.86352
0.851817
0.836911
0.830252
0.827267
0.819908
0.790982
0.743321
0.694729
0.644837
0.584221
0.492972
0.368609
0.329503
0.239008
0.194602
0.110436
0.15486
0.136321
0
0
0
0
0.0359165
0
0
0
0
0.0830938
0.143057
0.139047
0.062848
0.0328872
0
0
0
0.228425
0.121414
0.0527989
0
0
0.289147
0.0311561
0.171885
0.00913384
0.0156502
0
0
0.228069
0.367148
0
0.48297
0.352989
0.0651836
0.234081
0.266731
0.256705
0.0318819
0.23275
0.239158
0.235451
0.366973
0.303037
0.230813
0.318612
0.346598
0.365531
0.387566
0.378371
0.375327
0.414535
0.407747
0.472982
0.557915
0.660724
0.67264
0.632738
0.516525
0.494092
0.268251
0.167774
0
0
0
0
0
0
0
0
0
0
0
0
0
0
0
0
0
0
0
0
0
0
0
0
0
0
0
0
0
0
0
0
0
0
0
0
0
0
0
0
0
0
0
0
0
0
0
0
0
0
0
0
0
0
0
0
0.416353
0.484002
0.748633
0.616514
0.557236
0
0
0
0
0
0
0
0
0
0
0
0
0
0
0
0
0
0
0.38543
0
0.180399
0
0.659737
0.271972
0.492903
0.14379
0.197391
0.0327222
0
0
0
0
0.355822
0
0
0
0
0
0
0.154875
0.0636752
0.075435
0.0326563
0
0.0993311
0.0687991
0
0
0
0
0
0.195874
0.495554
0.57483
0.947672
0.988329
0.985416
0.83756
0
0
0.281161
0.0147178
0.23067
0.145065
0.278053
0.420026
0.400058
0.736839
0.739629
0.556326
0.51258
0.462981
0.174204
0.344405
0.47671
0.478864
0.236615
0.666423
0.138712
0
0.136332
0.785919
0
0.0997199
0.00697654
0
0.0816773
0
0.023151
0.0250746
0.00991031
0.00814766
0.00226781
0
0
0
0
0
0.154775
0.125274
0
0
0
0
0
0
0.19064
0.335838
0.218273
0.651725
0.751631
0.501062
0.226278
0.108875
0.0904549
0.0840641
0.0271546
0.0210487
0
0
0
0
0
0
0.00064885
0.00113771
0.00214053
0.0101561
0.0186892
0.020984
0.00493957
0
0.0132817
0
0
0
0
0
0
0
0
0
0.00633079
0
0
0
0
0
0.0243974
0
0
0.00700069
0.0379746
0
0.0889101
0.0292332
0.207997
0.0371841
0
0
0
0
0
0
0
0
0.219222
0
0
0
0.24807
0.161178
0
0
0.0245351
0
0
0.0045923
0.00125353
0
0
0
0.0283715
0.00538094
0.00681769
0.0683944
0.00347824
0
0.0148104
0
0
0
0.0106936
0.0179604
0.0302482
0.0165962
0
0.109801
0
0
0.19862
0.15062
0
0.0376973
0.551878
0.583981
0.88766
0.952404
0.957294
0.978208
0
0
0
0.281373
0.132182
0.151322
0
0
0
0
0
0.427457
0.605523
0.858514
0.908103
0.918554
0.930129
0.933761
0.948338
0.956794
0.963121
0.963864
0.957855
0.94499
0.921135
0.894884
0.836526
0.677062
0.46693
0.362685
0.237133
0.150252
0
0
0.128587
0.165204
0.178081
0.0976762
0
0
0
0
0
0
0
0.016431
0.12637
0.266323
0.0125484
0
0
0
0
0.220076
0
0
0.0365459
0.313528
0
0.131939
0
0.254703
0
0
0.465635
0.382466
0.137206
0.441357
0.317665
0.234389
0.232314
0.238928
0.247813
0.0288247
0.24804
0.252369
0.253709
0.376641
0.31488
0.253287
0.319195
0.344901
0.375452
0.401169
0.382298
0.385211
0.422858
0.4273
0.50144
0.583403
0.673748
0.674192
0.650874
0.52754
0.472413
0.264492
0.16406
0
0
0
0
0
0
0
0
0
0
0
0
0
0
0
0
0
0
0
0
0
0
0
0
0
0
0
0
0
0
0
0
0
0
0
0
0
0
0
0
0
0
0
0
0
0
0
0
0
0
0
0
0
0
0
0.248694
0.520258
0.516354
0.754228
0.814643
0.892006
0
0
0
0
0
0
0
0
0
0
0
0
0
0
0
0
0
0
0
0
0
0
0.113667
0.505805
0.420272
0.215754
0.179273
0.0839228
0
0
0
0
0
0
0
0
0
0
0
0
0
0
0.1187
0
0.0521886
0.0474181
0
0
0
0
0.0417111
0.218431
0.487927
0.587587
0.949608
0.988377
0.986049
0.838776
0
0
0.274703
0.0256486
0.216712
0.0799343
0.275773
0.437602
0.403751
0.740593
0.745818
0.574921
0.548018
0.491683
0.272076
0.351916
0.459729
0.304714
0.344254
0.722008
0
0
0.538395
0.7366
0.575575
0.153651
0.296939
0