/*--------------------------------*- C++ -*----------------------------------*\
| =========                 |                                                 |
| \\      /  F ield         | OpenFOAM: The Open Source CFD Toolbox           |
|  \\    /   O peration     | Version:  v2006                                 |
|   \\  /    A nd           | Website:  www.openfoam.com                      |
|    \\/     M anipulation  |                                                 |
\*---------------------------------------------------------------------------*/
FoamFile
{
    version     2.0;
    format      ascii;
    class       volScalarField;
    location    "25";
    object      nut;
}
// * * * * * * * * * * * * * * * * * * * * * * * * * * * * * * * * * * * * * //

dimensions      [0 2 -1 0 0 0 0];


internalField   nonuniform List<scalar> 
93840
(
2.7909e-08
2.79032e-08
2.7912e-08
2.79163e-08
2.79394e-08
2.79579e-08
2.81024e-08
2.81393e-08
2.7993e-08
2.82188e-08
2.82632e-08
2.83233e-08
2.84131e-08
2.88288e-08
2.89918e-08
2.89487e-08
2.91744e-08
3.09388e-08
3.39738e-08
3.99187e-08
4.16262e-08
2.87099e-08
5.7131e-08
4.65251e-08
3.50359e-08
2.13788e-11
1.44748e-09
3.76197e-07
2.16654e-06
5.32675e-06
7.88538e-06
9.44229e-06
9.69182e-06
8.12276e-06
9.22942e-06
7.7711e-06
8.03232e-06
7.48369e-06
7.22528e-06
6.88851e-06
6.48849e-06
6.20915e-06
6.01548e-06
5.65779e-06
5.41368e-06
5.15892e-06
4.94617e-06
4.81297e-06
4.75413e-06
4.58211e-06
4.46868e-06
4.31217e-06
4.11345e-06
4.01245e-06
3.89521e-06
3.63307e-06
3.52355e-06
3.43651e-06
3.34092e-06
3.34615e-06
3.56182e-06
3.40995e-06
3.39065e-06
3.22889e-06
2.90443e-06
2.94269e-06
2.86434e-06
2.72033e-06
2.82481e-06
2.85336e-06
2.67309e-06
2.36212e-06
2.24802e-06
2.03296e-06
2.10146e-06
2.07202e-06
1.97873e-06
2.12631e-06
1.98322e-06
2.05505e-06
1.85591e-06
1.80696e-06
2.15092e-06
2.35103e-06
2.33989e-06
2.25737e-06
2.44195e-06
2.67652e-06
2.6173e-06
2.58562e-06
2.70039e-06
2.66228e-06
2.9035e-06
3.40353e-06
3.47364e-06
3.52592e-06
3.81571e-06
4.33567e-06
4.42717e-06
4.84906e-06
5.95553e-06
6.91137e-06
8.11424e-06
9.28103e-06
1.00495e-05
1.06277e-05
1.115e-05
1.18312e-05
1.24688e-05
1.31062e-05
1.36385e-05
1.42053e-05
1.47168e-05
1.52742e-05
1.58107e-05
1.6316e-05
1.67975e-05
1.73309e-05
1.77793e-05
1.82581e-05
1.86477e-05
1.90287e-05
1.9244e-05
1.94972e-05
1.95247e-05
1.95602e-05
1.96858e-05
1.94759e-05
1.96104e-05
1.95112e-05
1.9421e-05
1.93787e-05
1.92675e-05
1.9278e-05
1.92102e-05
1.91594e-05
1.90553e-05
1.90422e-05
1.8968e-05
1.89628e-05
1.89309e-05
1.88909e-05
1.88159e-05
1.87884e-05
1.87459e-05
1.87231e-05
1.86836e-05
1.86503e-05
1.85811e-05
1.85083e-05
1.84425e-05
1.83696e-05
1.82831e-05
1.81853e-05
1.80713e-05
1.79544e-05
1.78122e-05
1.76601e-05
1.74713e-05
1.72956e-05
1.71297e-05
1.69507e-05
1.67194e-05
1.6477e-05
1.61992e-05
1.58846e-05
1.55073e-05
1.50499e-05
1.43825e-05
1.33828e-05
1.21351e-05
1.11106e-05
9.78709e-06
5.91184e-06
2.45262e-07
3.10298e-06
6.4111e-06
2.49067e-06
7.31213e-09
8.79247e-08
6.07371e-07
3.82411e-07
2.94133e-07
5.27827e-08
7.30331e-08
1.31751e-10
5.43785e-09
2.87214e-06
3.40692e-06
8.11236e-08
5.96767e-06
1.83344e-05
2.08481e-05
1.95158e-05
2.22372e-05
2.55888e-05
2.75123e-05
2.82872e-05
2.85055e-05
2.85363e-05
2.84333e-05
2.82444e-05
2.80512e-05
2.77942e-05
2.75465e-05
2.72307e-05
2.69498e-05
2.66611e-05
2.64642e-05
2.62622e-05
2.61407e-05
2.60099e-05
2.59331e-05
2.58539e-05
2.58212e-05
2.57268e-05
2.56426e-05
2.55866e-05
2.55639e-05
2.54787e-05
2.54811e-05
2.54839e-05
2.53813e-05
2.51978e-05
2.49999e-05
2.47793e-05
2.45494e-05
2.42927e-05
2.40385e-05
2.38208e-05
2.36807e-05
2.36536e-05
2.34898e-05
2.33375e-05
2.31755e-05
2.28865e-05
2.25823e-05
2.19361e-05
2.10442e-05
2.02065e-05
1.92012e-05
1.81687e-05
1.78712e-05
1.77698e-05
1.7526e-05
1.73366e-05
1.71404e-05
1.70298e-05
1.65327e-05
1.61835e-05
1.58965e-05
1.51573e-05
1.4752e-05
1.4374e-05
1.3757e-05
1.33273e-05
1.26493e-05
1.16351e-05
1.05572e-05
8.89655e-06
7.5492e-06
6.25362e-06
4.67816e-06
3.55317e-06
3.06694e-06
2.57922e-06
1.75118e-06
1.38625e-06
1.39399e-06
1.02857e-06
1.06781e-06
1.19831e-06
1.29337e-06
1.7164e-06
1.61682e-06
1.16275e-06
1.38429e-06
1.40739e-06
1.70384e-06
1.57675e-06
1.93524e-06
2.25042e-06
2.24931e-06
2.19552e-06
2.20604e-06
2.31966e-06
2.56614e-06
2.68525e-06
2.66022e-06
2.73299e-06
2.78654e-06
2.87705e-06
3.53024e-06
4.2449e-06
5.10105e-06
5.0952e-06
4.83936e-06
5.12626e-06
4.93806e-06
5.14547e-06
5.54866e-06
5.30434e-06
4.71172e-06
4.48446e-06
4.65271e-06
4.58952e-06
4.29883e-06
5.16246e-06
5.68474e-06
5.84465e-06
5.67037e-06
4.94859e-06
5.3738e-06
5.63231e-06
6.49557e-06
6.56073e-06
6.50908e-06
5.23338e-06
4.30888e-06
3.79953e-06
4.09973e-06
4.78459e-06
5.95014e-06
5.91791e-06
6.45981e-06
5.97628e-06
6.17051e-06
5.67582e-06
5.65524e-06
5.33162e-06
5.61146e-06
5.28889e-06
6.12377e-06
5.32157e-06
6.54075e-06
4.28226e-06
7.99936e-06
8.78221e-06
8.5047e-06
7.98978e-06
5.96188e-06
1.47446e-06
1.91119e-08
1.06198e-08
1.30147e-08
1.47903e-08
1.66137e-08
4.31652e-08
3.68952e-08
3.40442e-08
3.11442e-08
2.93301e-08
2.9025e-08
2.90416e-08
2.88439e-08
2.83988e-08
2.83397e-08
2.83782e-08
2.81605e-08
2.80833e-08
2.80498e-08
2.79441e-08
2.7935e-08
2.79113e-08
2.79321e-08
2.79193e-08
2.79047e-08
2.79069e-08
2.79083e-08
2.79134e-08
2.79201e-08
2.79344e-08
2.79117e-08
2.79341e-08
2.79088e-08
2.80643e-08
2.80949e-08
2.82075e-08
2.83275e-08
2.83338e-08
2.84295e-08
2.88543e-08
2.90082e-08
2.89384e-08
2.90887e-08
3.07315e-08
3.22182e-08
3.43428e-08
3.17489e-08
4.22327e-08
1.1367e-08
1.17318e-08
2.29009e-08
2.3378e-07
1.84137e-07
4.97524e-08
3.96886e-07
1.8278e-06
3.59443e-06
4.74349e-06
5.41713e-06
5.1412e-06
5.84067e-06
5.50559e-06
5.87817e-06
5.72848e-06
6.29542e-06
5.60104e-06
5.69366e-06
5.57333e-06
6.5053e-06
5.8773e-06
5.84244e-06
6.0464e-06
5.69211e-06
5.99427e-06
6.26928e-06
5.46781e-06
5.87701e-06
5.81615e-06
6.17626e-06
5.51954e-06
6.00531e-06
5.62143e-06
5.54289e-06
5.41173e-06
5.32884e-06
5.28676e-06
5.19338e-06
5.31633e-06
5.12768e-06
5.11724e-06
5.26743e-06
5.24e-06
5.26455e-06
5.20676e-06
5.28151e-06
5.17291e-06
5.0461e-06
4.96921e-06
4.97234e-06
4.93022e-06
4.92167e-06
4.63586e-06
4.66048e-06
4.57271e-06
4.59645e-06
4.69067e-06
4.92546e-06
5.4939e-06
5.44715e-06
5.4373e-06
5.20152e-06
4.82128e-06
5.13352e-06
5.08725e-06
5.52189e-06
5.48446e-06
5.39559e-06
5.55655e-06
5.6583e-06
5.33789e-06
4.99806e-06
5.10822e-06
5.18652e-06
5.35989e-06
5.67357e-06
5.33687e-06
6.10908e-06
7.01766e-06
7.56637e-06
8.14415e-06
8.76322e-06
9.68091e-06
1.03579e-05
1.12205e-05
1.18812e-05
1.25595e-05
1.31519e-05
1.37282e-05
1.42804e-05
1.47833e-05
1.52341e-05
1.5658e-05
1.59847e-05
1.62612e-05
1.64654e-05
1.66723e-05
1.67799e-05
1.68787e-05
1.69008e-05
1.69198e-05
1.67928e-05
1.6762e-05
1.6596e-05
1.65395e-05
1.64367e-05
1.62884e-05
1.62486e-05
1.61088e-05
1.60776e-05
1.59674e-05
1.58898e-05
1.58082e-05
1.57399e-05
1.56859e-05
1.56061e-05
1.55468e-05
1.54488e-05
1.53781e-05
1.52883e-05
1.5218e-05
1.51062e-05
1.50122e-05
1.48689e-05
1.4746e-05
1.4577e-05
1.4429e-05
1.42302e-05
1.40329e-05
1.37917e-05
1.35431e-05
1.32488e-05
1.29284e-05
1.2543e-05
1.21066e-05
1.15843e-05
1.09746e-05
1.02307e-05
9.36945e-06
8.42276e-06
7.44035e-06
6.45597e-06
5.48886e-06
4.48389e-06
3.35866e-06
2.1358e-06
1.0571e-06
5.95546e-07
7.53507e-07
6.17262e-07
4.11438e-08
3.15653e-08
2.19587e-09
3.81039e-10
4.14623e-11
1.19186e-07
9.86036e-08
2.34802e-09
5.02839e-11
2.1263e-09
1.23569e-07
5.71655e-08
1.31951e-07
4.21299e-09
6.9331e-08
1.70758e-07
7.26926e-09
1.10299e-09
2.43084e-06
2.83383e-06
4.69457e-07
1.36913e-06
4.84947e-06
7.01375e-06
7.38904e-06
8.17548e-06
9.75643e-06
1.13164e-05
1.23347e-05
1.31638e-05
1.39408e-05
1.47241e-05
1.54052e-05
1.61322e-05
1.68116e-05
1.74918e-05
1.8071e-05
1.85651e-05
1.89584e-05
1.93048e-05
1.9575e-05
1.98179e-05
2.00059e-05
2.01704e-05
2.02623e-05
2.03451e-05
2.03906e-05
2.04043e-05
2.04188e-05
2.04847e-05
2.04967e-05
2.05245e-05
2.05128e-05
2.04194e-05
2.03913e-05
2.01634e-05
2.01455e-05
1.99265e-05
1.98174e-05
1.96779e-05
1.95843e-05
1.95549e-05
1.95903e-05
1.95518e-05
1.94776e-05
1.92345e-05
1.89548e-05
1.8658e-05
1.85905e-05
1.82956e-05
1.81825e-05
1.7753e-05
1.73837e-05
1.71655e-05
1.6941e-05
1.6986e-05
1.63769e-05
1.60719e-05
1.57366e-05
1.52814e-05
1.48853e-05
1.4416e-05
1.43649e-05
1.37009e-05
1.29819e-05
1.21291e-05
1.11152e-05
1.01129e-05
9.87833e-06
8.78592e-06
7.75808e-06
7.04628e-06
6.67066e-06
5.94269e-06
5.90342e-06
5.47088e-06
5.09163e-06
4.68057e-06
4.69705e-06
4.72446e-06
4.53911e-06
4.12933e-06
4.13585e-06
4.51982e-06
4.59989e-06
4.9705e-06
5.14658e-06
5.1613e-06
5.06456e-06
5.01988e-06
5.01861e-06
5.29957e-06
5.12668e-06
5.04758e-06
5.09412e-06
5.12476e-06
5.24548e-06
5.19978e-06
5.12992e-06
5.2802e-06
5.03653e-06
5.16367e-06
5.04248e-06
5.08679e-06
5.08561e-06
4.77939e-06
4.7263e-06
4.34583e-06
4.4924e-06
4.34666e-06
4.5179e-06
5.12147e-06
5.87883e-06
5.92258e-06
5.45777e-06
5.7116e-06
5.74653e-06
6.42149e-06
6.56336e-06
7.25886e-06
7.30456e-06
7.12736e-06
6.622e-06
6.1019e-06
5.53593e-06
5.36987e-06
4.26758e-06
4.58779e-06
3.14817e-06
4.49823e-06
2.08536e-06
4.02725e-06
1.57748e-06
3.0101e-06
2.02794e-06
2.19855e-06
8.29758e-07
1.31452e-06
1.10728e-06
2.13334e-06
1.0079e-06
1.67214e-06
8.69116e-08
3.9243e-06
7.44777e-06
9.2133e-06
1.02413e-05
1.16517e-05
7.20398e-06
2.78696e-06
4.1218e-07
6.848e-08
8.8212e-08
6.08977e-08
3.09481e-08
3.1157e-08
3.2669e-08
3.10949e-08
2.93546e-08
2.90478e-08
2.90335e-08
2.88266e-08
2.84035e-08
2.83369e-08
2.82608e-08
2.83404e-08
2.80392e-08
2.81821e-08
2.80101e-08
2.79629e-08
2.79426e-08
2.79207e-08
2.79116e-08
2.79073e-08
2.79094e-08
2.79098e-08
2.79123e-08
2.79125e-08
2.79171e-08
2.79366e-08
2.79813e-08
2.80683e-08
2.81454e-08
2.80751e-08
2.81912e-08
2.82638e-08
2.83444e-08
2.83896e-08
2.88351e-08
2.89602e-08
2.88571e-08
2.90324e-08
3.07868e-08
3.24905e-08
3.28935e-08
3.53287e-08
3.39085e-08
5.55925e-08
6.63269e-08
1.85029e-08
2.47857e-08
4.82501e-08
2.41136e-08
6.80138e-14
3.71571e-12
1.12735e-07
1.16565e-07
2.33724e-08
6.82488e-08
3.63941e-07
1.12722e-07
1.9783e-08
2.72966e-07
4.30258e-07
9.73233e-08
7.79502e-07
2.95685e-07
1.13449e-06
3.91264e-07
1.18936e-06
7.81962e-07
1.20838e-06
1.39772e-06
1.65342e-06
1.05911e-06
1.52802e-06
1.75074e-06
1.91604e-06
1.7152e-06
2.11359e-06
1.95905e-06
1.73353e-06
1.68655e-06
1.29236e-06
1.76159e-06
1.46638e-06
2.00129e-06
1.49371e-06
1.75282e-06
2.09983e-06
2.36169e-06
2.5246e-06
2.5275e-06
2.61644e-06
2.75399e-06
2.55726e-06
2.76463e-06
2.95053e-06
2.79303e-06
2.82906e-06
2.60817e-06
2.40167e-06
2.29179e-06
2.35731e-06
2.75449e-06
3.05439e-06
4.17377e-06
3.88479e-06
2.89321e-06
2.39579e-06
2.46255e-06
3.25507e-06
3.47172e-06
4.16598e-06
4.75494e-06
4.56672e-06
4.12405e-06
3.99412e-06
3.94391e-06
3.60767e-06
3.5585e-06
3.63453e-06
4.10783e-06
4.55365e-06
4.19799e-06
4.60709e-06
5.48649e-06
5.74064e-06
5.67795e-06
6.28406e-06
7.31416e-06
8.13585e-06
9.01469e-06
9.64513e-06
1.02015e-05
1.08368e-05
1.13568e-05
1.18137e-05
1.22847e-05
1.26144e-05
1.29431e-05
1.30524e-05
1.30703e-05
1.30544e-05
1.30357e-05
1.28961e-05
1.28127e-05
1.26873e-05
1.2486e-05
1.21727e-05
1.19966e-05
1.16991e-05
1.16589e-05
1.13486e-05
1.12903e-05
1.11647e-05
1.09675e-05
1.09927e-05
1.07517e-05
1.07368e-05
1.05745e-05
1.05181e-05
1.04272e-05
1.03047e-05
1.02158e-05
1.0057e-05
9.96881e-06
9.81202e-06
9.70448e-06
9.51121e-06
9.36244e-06
9.1207e-06
8.93468e-06
8.65192e-06
8.39911e-06
8.03475e-06
7.66739e-06
7.19778e-06
6.71021e-06
6.11729e-06
5.48435e-06
4.75905e-06
4.01565e-06
3.25548e-06
2.53417e-06
1.87028e-06
1.26128e-06
7.72614e-07
3.83339e-07
1.9696e-07
9.12193e-08
6.42926e-08
4.09818e-08
4.78033e-08
5.4353e-08
5.61784e-08
3.98668e-08
4.10024e-08
6.56496e-08
8.27226e-08
7.16717e-08
8.93619e-08
1.0617e-07
3.75256e-08
2.60363e-08
1.09428e-07
2.14587e-07
1.07722e-07
1.85548e-08
3.91182e-08
4.50814e-08
4.68037e-08
9.33682e-09
1.07632e-08
2.24387e-08
1.27821e-08
2.35575e-08
4.92202e-08
1.14087e-08
9.65629e-09
9.58372e-08
2.04027e-07
8.97466e-08
1.16763e-07
4.96411e-07
9.4795e-07
1.21825e-06
1.52767e-06
1.9889e-06
2.46647e-06
2.91184e-06
3.51479e-06
4.24735e-06
5.12198e-06
6.0632e-06
7.07789e-06
8.1563e-06
9.29323e-06
1.03835e-05
1.13675e-05
1.21804e-05
1.28466e-05
1.3325e-05
1.36673e-05
1.3947e-05
1.41107e-05
1.41646e-05
1.43096e-05
1.43862e-05
1.45403e-05
1.46122e-05
1.47112e-05
1.47906e-05
1.47e-05
1.47041e-05
1.45742e-05
1.44886e-05
1.43218e-05
1.42248e-05
1.40867e-05
1.43026e-05
1.43896e-05
1.47572e-05
1.48091e-05
1.47141e-05
1.43248e-05
1.43765e-05
1.40931e-05
1.43726e-05
1.4196e-05
1.37629e-05
1.37286e-05
1.33759e-05
1.41682e-05
1.3661e-05
1.33962e-05
1.33096e-05
1.28959e-05
1.25694e-05
1.20837e-05
1.25701e-05
1.26875e-05
1.22429e-05
1.14412e-05
1.05442e-05
1.01347e-05
1.00195e-05
8.85811e-06
7.48563e-06
7.03999e-06
6.83391e-06
5.93149e-06
5.67278e-06
5.42311e-06
4.94667e-06
4.38919e-06
4.22008e-06
4.11661e-06
3.76342e-06
2.81955e-06
2.72657e-06
3.17534e-06
3.49848e-06
3.97114e-06
4.59973e-06
4.77249e-06
4.74284e-06
4.48636e-06
4.04065e-06
4.04063e-06
3.75853e-06
3.61256e-06
3.88591e-06
4.05682e-06
3.82197e-06
3.9674e-06
4.00869e-06
3.80968e-06
2.97649e-06
2.6173e-06
2.74296e-06
2.3561e-06
1.9223e-06
1.33499e-06
1.28257e-06
9.93931e-07
7.88053e-07
7.876e-07
1.35819e-06
2.4928e-06
3.32206e-06
3.24795e-06
2.69338e-06
3.11022e-06
3.56166e-06
4.45763e-06
4.43289e-06
5.17635e-06
4.65793e-06
4.7005e-06
3.40255e-06
3.36345e-06
1.29565e-06
1.42946e-06
2.06115e-07
3.29541e-07
2.01573e-08
1.85032e-07
3.33642e-08
8.42352e-08
1.52352e-09
2.58883e-08
8.7243e-08
3.46757e-10
1.56471e-08
3.12153e-10
9.57502e-09
3.78319e-09
3.0009e-09
4.20994e-09
2.60514e-09
4.10612e-08
3.46576e-06
5.29116e-06
5.78836e-06
1.06403e-05
1.00326e-05
5.49375e-06
1.52912e-06
1.76073e-07
2.52307e-08
5.18066e-08
2.70565e-08
3.43473e-08
3.24267e-08
3.10463e-08
2.94651e-08
2.91362e-08
2.90682e-08
2.88127e-08
2.84195e-08
2.83514e-08
2.84159e-08
2.81263e-08
2.81094e-08
2.80243e-08
2.7994e-08
2.7931e-08
2.79149e-08
2.79299e-08
2.79201e-08
2.7904e-08
2.79096e-08
2.79077e-08
2.79045e-08
2.79218e-08
2.79323e-08
2.79089e-08
2.79362e-08
2.79311e-08
2.80615e-08
2.80578e-08
2.81042e-08
2.84009e-08
2.83107e-08
2.83969e-08
2.88664e-08
2.8974e-08
2.88454e-08
2.90256e-08
3.09319e-08
3.35269e-08
3.93429e-08
4.20492e-08
2.63238e-08
3.97771e-08
7.03843e-09
3.49828e-08
8.28591e-08
2.6045e-07
3.50808e-07
3.46766e-07
1.35589e-07
9.47752e-08
6.15448e-08
9.50532e-08
5.44752e-08
6.61161e-08
7.06437e-09
1.2786e-08
4.10211e-09
6.63372e-09
1.86878e-08
2.57515e-09
1.87621e-08
2.47008e-09
2.97342e-08
8.99347e-11
3.08866e-08
7.34335e-09
6.46102e-09
7.70911e-09
2.11013e-08
9.42158e-09
1.89888e-08
3.80347e-08
3.80192e-08
8.6771e-09
6.1382e-08
1.0109e-08
2.81339e-08
2.1957e-08
2.24001e-08
3.47335e-08
1.70642e-08
2.39604e-08
2.05122e-08
4.32615e-08
9.99283e-08
1.11822e-07
1.40369e-07
1.96872e-07
3.03925e-07
2.59273e-07
3.73598e-07
4.34935e-07
3.43244e-07
3.65727e-07
3.03036e-07
2.23168e-07
2.13815e-07
2.81077e-07
5.00323e-07
8.13587e-07
1.67581e-06
1.28757e-06
3.72802e-07
3.17392e-07
4.77311e-07
9.84193e-07
1.12714e-06
1.94303e-06
2.82855e-06
2.44832e-06
1.76989e-06
1.6312e-06
1.7527e-06
1.54734e-06
1.48221e-06
1.5661e-06
2.09336e-06
2.51806e-06
2.07404e-06
2.28825e-06
2.94981e-06
3.0222e-06
2.78896e-06
3.3915e-06
4.26889e-06
4.89096e-06
5.48275e-06
5.71686e-06
5.89953e-06
6.2642e-06
6.44825e-06
6.6032e-06
6.77274e-06
6.82444e-06
6.82422e-06
6.59513e-06
6.32298e-06
6.09825e-06
5.8896e-06
5.57422e-06
5.35476e-06
5.14148e-06
4.72794e-06
4.40524e-06
4.16814e-06
3.96531e-06
3.88718e-06
3.62694e-06
3.64588e-06
3.48765e-06
3.38288e-06
3.3973e-06
3.21849e-06
3.22433e-06
3.11309e-06
3.07739e-06
3.03798e-06
2.94067e-06
2.90311e-06
2.79041e-06
2.7473e-06
2.64732e-06
2.58297e-06
2.46975e-06
2.37246e-06
2.22727e-06
2.11494e-06
1.94189e-06
1.79267e-06
1.57083e-06
1.35904e-06
1.08941e-06
8.42642e-07
5.65859e-07
3.50343e-07
1.79663e-07
9.44832e-08
5.17585e-08
3.49906e-08
2.85467e-08
2.45472e-08
2.45895e-08
2.33772e-08
2.55788e-08
2.53667e-08
2.72348e-08
2.65425e-08
2.68923e-08
2.58566e-08
2.73151e-08
2.90036e-08
2.9934e-08
2.78082e-08
2.68838e-08
2.8289e-08
2.56292e-08
2.27276e-08
3.59366e-08
5.26823e-08
2.15812e-08
4.74124e-09
1.67113e-08
1.06647e-07
3.85658e-08
3.19266e-08
4.5732e-08
6.04843e-08
4.38924e-08
3.00498e-08
2.21249e-08
1.8387e-08
1.68443e-08
1.53531e-08
1.38404e-08
1.46213e-08
1.44683e-08
1.28929e-08
1.16534e-08
1.41944e-08
1.42934e-08
1.6769e-08
1.73024e-08
2.32256e-08
2.89196e-08
3.48632e-08
4.75476e-08
7.55801e-08
1.30231e-07
2.47433e-07
4.41227e-07
7.6938e-07
1.30562e-06
1.94925e-06
2.66641e-06
3.3049e-06
3.91502e-06
4.36402e-06
4.72554e-06
4.98222e-06
5.19566e-06
5.19878e-06
5.32756e-06
5.35302e-06
5.48872e-06
5.58236e-06
5.72987e-06
5.79597e-06
5.81458e-06
5.74131e-06
5.82124e-06
5.69512e-06
5.54711e-06
5.4089e-06
5.23941e-06
5.39255e-06
5.70526e-06
6.15762e-06
6.38294e-06
6.36334e-06
6.06506e-06
6.05849e-06
5.95575e-06
6.46194e-06
6.50913e-06
6.03683e-06
6.11081e-06
5.91775e-06
7.05011e-06
6.9388e-06
6.82333e-06
6.92268e-06
6.7721e-06
6.51696e-06
6.07376e-06
7.04835e-06
8.18955e-06
8.22564e-06
7.66278e-06
6.68709e-06
6.76399e-06
7.11815e-06
6.08133e-06
4.51923e-06
4.23811e-06
4.05217e-06
3.25603e-06
3.12597e-06
3.34635e-06
2.86125e-06
2.07567e-06
1.79429e-06
1.51106e-06
1.01866e-06
3.02612e-07
2.81378e-07
5.73694e-07
9.45348e-07
1.44177e-06
2.29327e-06
2.67994e-06
2.66646e-06
2.32072e-06
1.77227e-06
1.64743e-06
1.46724e-06
1.29783e-06
1.64153e-06
1.8769e-06
1.48514e-06
1.51168e-06
1.58735e-06
1.29074e-06
5.80006e-07
2.99627e-07
4.93512e-07
2.83667e-07
1.93048e-07
1.11189e-07
8.58529e-08
7.30491e-08
4.39516e-08
5.54558e-08
9.67177e-08
4.05394e-07
7.91863e-07
6.37357e-07
4.22142e-07
7.23777e-07
1.18644e-06
1.94922e-06
1.8187e-06
2.28178e-06
1.52011e-06
1.88347e-06
5.19166e-07
7.02173e-07
5.09472e-08
5.7785e-08
9.43062e-08
1.55756e-07
1.91779e-07
1.38394e-07
2.09543e-07
1.72335e-07
1.31667e-07
2.50338e-07
6.82857e-07
2.74636e-08
8.81706e-07
3.21807e-07
1.42477e-07
1.15601e-06
4.30192e-08
1.32323e-06
2.07093e-07
5.92835e-07
1.43074e-06
3.12803e-06
2.55044e-06
5.22002e-06
9.75233e-06
7.01776e-06
2.49964e-06
3.15556e-07
3.12244e-08
2.48056e-08
5.47147e-08
4.89527e-08
3.49707e-08
3.14472e-08
2.95754e-08
2.91707e-08
2.90854e-08
2.88226e-08
2.84189e-08
2.83612e-08
2.82496e-08
2.82827e-08
2.80637e-08
2.81649e-08
2.80125e-08
2.79696e-08
2.79365e-08
2.79239e-08
2.79141e-08
2.79077e-08
2.79079e-08
2.79101e-08
2.79098e-08
2.79119e-08
2.79197e-08
2.79409e-08
2.79585e-08
2.81302e-08
2.8111e-08
2.80633e-08
2.82484e-08
2.83451e-08
2.83305e-08
2.84045e-08
2.88607e-08
2.89822e-08
2.88204e-08
2.89343e-08
3.05184e-08
3.14323e-08
3.27042e-08
2.94925e-08
3.47864e-08
1.31601e-08
3.46169e-08
2.20581e-08
8.04525e-09
1.99223e-09
3.80724e-08
1.13833e-07
1.91352e-07
2.08838e-07
1.59712e-07
1.57178e-07
2.29012e-07
2.15134e-07
3.14225e-07
2.45621e-07
2.84294e-07
1.97241e-07
2.34398e-07
1.88113e-07
2.4495e-07
2.00493e-07
2.92826e-07
2.00551e-07
1.86065e-07
1.66931e-07
2.54915e-07
1.68788e-07
1.6888e-07
1.71084e-07
1.89692e-07
1.29617e-07
1.69359e-07
1.96305e-07
1.02103e-07
2.6059e-07
1.19275e-07
1.71026e-07
1.918e-07
1.34729e-07
1.9859e-07
1.5968e-07
1.89009e-07
1.63878e-07
1.56833e-07
1.59858e-07
1.54138e-07
1.48849e-07
1.50586e-07
1.60341e-07
1.55527e-07
1.5635e-07
1.42358e-07
1.58937e-07
1.50668e-07
1.64976e-07
1.75303e-07
2.11263e-07
2.34506e-07
3.19586e-07
4.57559e-07
3.29363e-07
2.0569e-07
2.47792e-07
2.89123e-07
3.73286e-07
4.33836e-07
8.62842e-07
1.34254e-06
9.66634e-07
6.06772e-07
6.32334e-07
6.89316e-07
7.38589e-07
7.26438e-07
7.60242e-07
1.10139e-06
1.35531e-06
1.0618e-06
1.23555e-06
1.63859e-06
1.71993e-06
1.77855e-06
2.06897e-06
2.15423e-06
2.30053e-06
2.24863e-06
2.07652e-06
1.93024e-06
1.8946e-06
1.81179e-06
1.69904e-06
1.61104e-06
1.50302e-06
1.36159e-06
1.1803e-06
9.69413e-07
8.61679e-07
7.14501e-07
5.86159e-07
4.66469e-07
4.02161e-07
2.61384e-07
2.23682e-07
1.75472e-07
1.58562e-07
1.42097e-07
1.23573e-07
1.18309e-07
1.06533e-07
1.02767e-07
1.00483e-07
9.32509e-08
8.91133e-08
8.56374e-08
8.37353e-08
8.29312e-08
7.90935e-08
7.63219e-08
7.24862e-08
6.82693e-08
6.76249e-08
6.37397e-08
6.21469e-08
5.70129e-08
5.39792e-08
4.98015e-08
4.67979e-08
4.34766e-08
4.07667e-08
3.76094e-08
3.60051e-08
3.46957e-08
3.50894e-08
3.54342e-08
3.69912e-08
3.84067e-08
3.96542e-08
4.0321e-08
3.98907e-08
3.98461e-08
4.01692e-08
4.11225e-08
4.22205e-08
4.25671e-08
4.32419e-08
4.28058e-08
4.3582e-08
4.36361e-08
4.4597e-08
4.45646e-08
4.55844e-08
4.77247e-08
4.91217e-08
5.11731e-08
5.44564e-08
6.07049e-08
5.5035e-08
4.62696e-08
6.72578e-08
1.50942e-07
6.00536e-08
2.57858e-08
5.5781e-08
3.94246e-08
1.80111e-08
1.47147e-08
1.73922e-08
2.22511e-08
2.25969e-08
2.20903e-08
2.02428e-08
1.94374e-08
1.80373e-08
1.78126e-08
1.74488e-08
1.75063e-08
1.76645e-08
1.74875e-08
1.72342e-08
1.70944e-08
1.67202e-08
1.60718e-08
1.57538e-08
1.57422e-08
1.65565e-08
1.72038e-08
1.80098e-08
1.89626e-08
2.14042e-08
2.38306e-08
2.93171e-08
3.89081e-08
5.67567e-08
8.06276e-08
1.21283e-07
1.58578e-07
1.99466e-07
2.32858e-07
2.62337e-07
2.53793e-07
2.68175e-07
2.72742e-07
2.8436e-07
3.27663e-07
3.49569e-07
3.73377e-07
3.66704e-07
3.40172e-07
3.89501e-07
3.43497e-07
3.19108e-07
2.78556e-07
2.48996e-07
2.63779e-07
3.96779e-07
5.53788e-07
6.57298e-07
6.37242e-07
5.93171e-07
5.33836e-07
5.79182e-07
8.15944e-07
9.08885e-07
7.09027e-07
6.82889e-07
6.93879e-07
1.19012e-06
1.32392e-06
1.30042e-06
1.48935e-06
1.44683e-06
1.53101e-06
1.17215e-06
1.76622e-06
2.8869e-06
3.34385e-06
3.60993e-06
2.92946e-06
3.18676e-06
3.78237e-06
3.13767e-06
2.18708e-06
1.8538e-06
1.60476e-06
9.46865e-07
6.92195e-07
1.10153e-06
9.64887e-07
5.75838e-07
4.64797e-07
3.16898e-07
1.79477e-07
1.16029e-07
9.92484e-08
1.12928e-07
1.47841e-07
2.21277e-07
5.71821e-07
8.92565e-07
8.84066e-07
6.74808e-07
4.19208e-07
3.59691e-07
3.28156e-07
3.06975e-07
4.46e-07
5.6287e-07
4.32109e-07
4.09077e-07
4.47825e-07
3.8595e-07
2.99035e-07
2.44199e-07
2.61856e-07
2.18456e-07
1.97248e-07
1.80397e-07
1.47615e-07
1.50768e-07
1.3945e-07
1.63656e-07
1.79905e-07
1.91108e-07
1.89717e-07
1.83407e-07
1.78314e-07
2.22614e-07
3.15919e-07
5.60165e-07
4.63403e-07
5.65512e-07
2.51381e-07
4.79312e-07
9.46761e-08
1.98819e-07
8.40015e-08
1.04316e-07
6.58103e-08
5.59997e-08
1.09037e-08
4.26315e-08
1.11052e-08
2.52849e-08
3.02428e-08
8.56244e-10
5.22018e-10
7.92389e-08
1.69063e-08
1.46336e-08
4.8607e-10
3.21732e-07
1.30164e-10
2.93044e-07
2.77403e-11
3.92765e-07
4.06353e-08
1.54109e-06
6.80203e-07
9.96201e-07
7.76583e-06
7.73331e-06
3.42144e-06
4.28794e-07
2.04551e-08
6.98235e-09
5.61039e-08
4.185e-08
3.68833e-08
3.18517e-08
2.96e-08
2.9168e-08
2.91148e-08
2.88523e-08
2.84195e-08
2.83715e-08
2.83232e-08
2.81262e-08
2.8175e-08
2.80165e-08
2.79385e-08
2.793e-08
2.79142e-08
2.79295e-08
2.79196e-08
2.79083e-08
2.79076e-08
2.79064e-08
2.79055e-08
2.79195e-08
2.79331e-08
2.79072e-08
2.79547e-08
2.78662e-08
2.80589e-08
2.80599e-08
2.8188e-08
2.83319e-08
2.8311e-08
2.83906e-08
2.8885e-08
2.89516e-08
2.87684e-08
2.89546e-08
3.07976e-08
3.18509e-08
3.2027e-08
3.45467e-08
3.65003e-08
2.05705e-08
3.15605e-08
2.37437e-08
8.90279e-08
1.53038e-07
1.20226e-08
2.76041e-08
2.55111e-08
4.17139e-08
7.3982e-08
4.2185e-08
5.99748e-08
4.38856e-08
5.90925e-08
6.26931e-08
7.92346e-08
9.04711e-08
8.03693e-08
9.48791e-08
6.27185e-08
9.92809e-08
6.11301e-08
1.48674e-07
5.92138e-08
1.43682e-07
5.13316e-08
1.4855e-07
8.68374e-08
1.11197e-07
9.10958e-08
1.35115e-07
8.88428e-08
1.12512e-07
1.328e-07
6.267e-08
1.82844e-07
7.563e-08
1.26676e-07
1.18555e-07
1.04738e-07
1.27279e-07
1.23943e-07
1.32103e-07
1.38071e-07
1.3224e-07
1.43093e-07
1.37319e-07
1.52616e-07
1.40646e-07
1.44283e-07
1.36556e-07
1.3913e-07
1.41435e-07
1.48357e-07
1.5855e-07
1.68926e-07
1.89601e-07
2.13978e-07
2.44655e-07
2.58437e-07
2.27256e-07
2.318e-07
2.78217e-07
3.4122e-07
3.53361e-07
4.15856e-07
6.62265e-07
7.50138e-07
4.93617e-07
4.32913e-07
5.12826e-07
5.59868e-07
6.88079e-07
6.36029e-07
7.36826e-07
9.48355e-07
9.49952e-07
9.64091e-07
1.10034e-06
1.25955e-06
1.21235e-06
1.06244e-06
8.54803e-07
7.32493e-07
5.69163e-07
4.86396e-07
3.15541e-07
2.33426e-07
1.95217e-07
1.67718e-07
1.11449e-07
1.10164e-07
8.08968e-08
6.92717e-08
6.01966e-08
4.58315e-08
4.51473e-08
3.81235e-08
3.43091e-08
3.10542e-08
3.01299e-08
2.59988e-08
2.82378e-08
2.45026e-08
2.75319e-08
2.47742e-08
2.67872e-08
2.54783e-08
2.61829e-08
2.62321e-08
2.67428e-08
2.62584e-08
2.73826e-08
2.62339e-08
2.77987e-08
2.71207e-08
2.76046e-08
2.80393e-08
2.74826e-08
2.85512e-08
2.76938e-08
2.84843e-08
2.84945e-08
2.84657e-08
2.9483e-08
2.88785e-08
3.02635e-08
2.97836e-08
3.06504e-08
3.07519e-08
3.05701e-08
3.12781e-08
2.99063e-08
3.0575e-08
2.8562e-08
2.87372e-08
2.75472e-08
2.74813e-08
2.80564e-08
2.81223e-08
2.97564e-08
2.88868e-08
3.00473e-08
2.86045e-08
2.96859e-08
2.92675e-08
3.03947e-08
3.06947e-08
3.10777e-08
3.21737e-08
3.2075e-08
3.32285e-08
3.30862e-08
3.35189e-08
3.33767e-08
3.18312e-08
3.31082e-08
3.77e-08
3.16331e-08
1.1725e-08
3.38367e-08
6.93086e-08
3.46571e-08
5.03088e-08
5.97664e-08
4.98247e-08
3.57277e-08
2.82587e-08
2.30696e-08
2.03886e-08
1.79963e-08
1.65194e-08
1.48476e-08
1.42175e-08
1.35103e-08
1.33795e-08
1.29478e-08
1.33411e-08
1.32441e-08
1.35877e-08
1.42747e-08
1.49027e-08
1.52637e-08
1.48653e-08
1.49396e-08
1.49738e-08
1.50926e-08
1.4667e-08
1.41506e-08
1.38172e-08
1.4092e-08
1.45915e-08
1.57918e-08
1.65681e-08
1.77289e-08
1.84643e-08
1.89483e-08
1.92227e-08
1.90338e-08
1.86942e-08
1.85007e-08
1.86784e-08
1.83128e-08
1.93403e-08
1.92824e-08
2.00877e-08
2.00571e-08
2.0036e-08
2.10003e-08
2.04887e-08
2.01036e-08
1.95768e-08
1.9355e-08
1.93975e-08
2.22888e-08
2.55031e-08
2.75739e-08
2.91e-08
3.24131e-08
2.96275e-08
3.56506e-08
4.19075e-08
4.34298e-08
4.41759e-08
4.00789e-08
4.12163e-08
6.69568e-08
6.58876e-08
8.11521e-08
1.06545e-07
8.68492e-08
1.46934e-07
9.82093e-08
1.29784e-07
3.97557e-07
5.62504e-07
1.02559e-06
1.01347e-06
1.06085e-06
1.71003e-06
1.69934e-06
1.27601e-06
1.01537e-06
8.06904e-07
7.11608e-07
4.37116e-07
3.74018e-07
3.79287e-07
3.11232e-07
2.80745e-07
2.43064e-07
1.78712e-07
1.82198e-07
1.55218e-07
1.45861e-07
1.36331e-07
1.16016e-07
1.63554e-07
2.62794e-07
2.59132e-07
2.176e-07
1.49961e-07
1.47489e-07
1.4922e-07
1.50339e-07
1.97779e-07
2.25534e-07
2.03762e-07
1.94398e-07
1.98518e-07
1.99121e-07
2.00852e-07
1.62425e-07
1.5959e-07
1.51453e-07
1.27015e-07
1.17869e-07
9.09219e-08
8.39635e-08
7.39919e-08
8.67128e-08
1.02479e-07
1.22088e-07
1.21735e-07
1.25466e-07
1.17401e-07
1.46394e-07
1.78413e-07
2.27526e-07
1.84279e-07
1.83116e-07
1.08873e-07
1.59185e-07
5.65996e-08
7.70778e-08
4.03894e-08
3.59452e-08
2.84472e-08
3.32614e-08
6.51919e-08
2.93666e-08
9.13544e-08
8.19462e-08
1.34065e-07
2.82427e-07
2.12565e-07
7.21213e-08
3.24019e-07
1.97652e-07
1.05012e-07
1.08422e-06
4.10437e-10
1.02384e-06
3.27432e-09
9.07627e-07
2.32467e-08
6.50254e-07
8.72157e-07
8.34906e-11
5.41979e-06
7.85097e-06
4.35046e-06
7.57272e-07
1.69177e-07
4.86761e-08
2.40353e-08
2.5519e-08
3.32068e-08
3.17729e-08
2.97063e-08
2.92237e-08
2.91388e-08
2.88482e-08
2.84279e-08
2.83636e-08
2.83071e-08
2.81838e-08
2.80194e-08
2.81528e-08
2.8018e-08
2.79679e-08
2.79339e-08
2.79226e-08
2.79168e-08
2.79038e-08
2.79085e-08
2.79099e-08
2.79132e-08
2.79152e-08
2.79161e-08
2.7939e-08
2.79472e-08
2.81117e-08
2.80633e-08
2.81173e-08
2.82315e-08
2.83147e-08
2.83102e-08
2.84084e-08
2.89224e-08
2.8979e-08
2.87942e-08
2.89754e-08
3.10336e-08
3.30025e-08
3.90157e-08
4.45828e-08
2.41051e-08
4.25457e-08
2.50801e-08
3.14578e-08
1.00279e-08
2.73006e-08
1.53092e-07
5.21216e-08
9.49289e-08
5.62775e-08
6.45133e-08
9.19812e-08
6.39021e-08
9.69979e-08
6.45671e-08
8.84434e-08
6.26187e-08
8.93773e-08
7.47622e-08
9.85325e-08
8.40341e-08
9.39697e-08
7.53385e-08
8.5314e-08
1.00781e-07
6.77456e-08
1.20117e-07
6.23688e-08
1.15564e-07
8.16796e-08
1.06814e-07
7.59785e-08
1.18579e-07
7.76495e-08
1.1587e-07
1.03532e-07
7.60499e-08
1.37854e-07
7.81425e-08
1.15577e-07
1.11262e-07
1.10648e-07
1.25786e-07
1.10566e-07
1.24561e-07
1.13754e-07
1.34214e-07
1.33348e-07
1.40467e-07
1.40881e-07
1.32081e-07
1.37357e-07
1.40961e-07
1.4611e-07
1.49305e-07
1.64188e-07
1.70709e-07
1.84526e-07
2.01936e-07
2.22951e-07
2.19785e-07
2.34132e-07
2.54305e-07
2.98386e-07
3.26306e-07
3.53265e-07
4.30977e-07
4.97229e-07
4.31321e-07
3.40473e-07
3.95792e-07
4.59422e-07
4.82594e-07
5.59967e-07
5.77002e-07
6.57129e-07
7.05657e-07
7.13408e-07
7.38255e-07
7.45648e-07
6.6362e-07
4.59599e-07
2.8916e-07
2.09738e-07
1.20839e-07
9.99292e-08
8.10183e-08
5.46753e-08
4.76817e-08
4.45458e-08
3.68301e-08
3.44908e-08
3.19476e-08
2.98984e-08
2.81473e-08
2.71651e-08
2.48896e-08
2.55556e-08
2.34783e-08
2.39969e-08
2.22668e-08
2.37089e-08
2.16749e-08
2.35409e-08
2.21946e-08
2.36622e-08
2.24836e-08
2.38955e-08
2.30745e-08
2.4084e-08
2.39135e-08
2.46054e-08
2.45722e-08
2.52811e-08
2.50369e-08
2.58199e-08
2.55883e-08
2.61513e-08
2.62513e-08
2.6604e-08
2.67203e-08
2.7126e-08
2.70555e-08
2.75496e-08
2.74318e-08
2.80694e-08
2.7686e-08
2.84889e-08
2.8186e-08
2.89777e-08
2.88257e-08
2.9556e-08
2.9824e-08
3.08073e-08
3.15468e-08
3.28889e-08
3.39176e-08
3.5675e-08
3.6329e-08
3.72502e-08
3.66136e-08
3.67273e-08
3.61155e-08
3.69294e-08
3.76153e-08
3.89561e-08
3.94081e-08
3.99863e-08
3.98266e-08
4.09157e-08
4.07589e-08
4.23524e-08
4.21077e-08
4.45383e-08
4.45059e-08
4.76896e-08
5.08373e-08
5.43754e-08
5.55157e-08
6.05959e-08
9.96351e-08
4.07783e-08
4.61148e-08
3.771e-08
2.06624e-08
1.64893e-08
1.96699e-08
2.25631e-08
2.55273e-08
2.49907e-08
2.44866e-08
2.28769e-08
2.17131e-08
1.98233e-08
1.90007e-08
1.83403e-08
1.78597e-08
1.7333e-08
1.68682e-08
1.61934e-08
1.60406e-08
1.53308e-08
1.53207e-08
1.55065e-08
1.59034e-08
1.60464e-08
1.62398e-08
1.66851e-08
1.7491e-08
1.81627e-08
1.87408e-08
1.85643e-08
1.82595e-08
1.75051e-08
1.70038e-08
1.6405e-08
1.61802e-08
1.57047e-08
1.55605e-08
1.52142e-08
1.50001e-08
1.48034e-08
1.48631e-08
1.47971e-08
1.48893e-08
1.47917e-08
1.5018e-08
1.50844e-08
1.52911e-08
1.55147e-08
1.53542e-08
1.53064e-08
1.50319e-08
1.50956e-08
1.50387e-08
1.55034e-08
1.59223e-08
1.629e-08
1.74843e-08
2.02953e-08