/*--------------------------------*- C++ -*----------------------------------*\
| =========                 |                                                 |
| \\      /  F ield         | OpenFOAM: The Open Source CFD Toolbox           |
|  \\    /   O peration     | Version:  v2006                                 |
|   \\  /    A nd           | Website:  www.openfoam.com                      |
|    \\/     M anipulation  |                                                 |
\*---------------------------------------------------------------------------*/
FoamFile
{
    version     2.0;
    format      ascii;
    class       volScalarField;
    location    "25";
    object      nuTilda;
}
// * * * * * * * * * * * * * * * * * * * * * * * * * * * * * * * * * * * * * //

dimensions      [0 2 -1 0 0 0 0];


internalField   nonuniform List<scalar> 
93840
(
3.978e-07
3.97801e-07
3.978e-07
3.97801e-07
3.97803e-07
3.97829e-07
3.97933e-07
3.9811e-07
3.9811e-07
3.98348e-07
3.9836e-07
3.98237e-07
3.98129e-07
3.98003e-07
3.98007e-07
3.98303e-07
3.9838e-07
4.00516e-07
4.07957e-07
4.24638e-07
4.27116e-07
3.90357e-07
4.8278e-07
4.92526e-07
5.24844e-07
7.32329e-08
1.81216e-07
8.5641e-07
2.31282e-06
5.35353e-06
7.8983e-06
9.45361e-06
9.70279e-06
8.13636e-06
9.24028e-06
7.78534e-06
8.04626e-06
7.49895e-06
7.24192e-06
6.9066e-06
6.50893e-06
6.23148e-06
6.03919e-06
5.68474e-06
5.44311e-06
5.19135e-06
4.98174e-06
4.85056e-06
4.79338e-06
4.62476e-06
4.5137e-06
4.36082e-06
4.16653e-06
4.06911e-06
3.95559e-06
3.70077e-06
3.59643e-06
3.51064e-06
3.42088e-06
3.42511e-06
3.63026e-06
3.48535e-06
3.46757e-06
3.31262e-06
3.00609e-06
3.04304e-06
2.9701e-06
2.83504e-06
2.9323e-06
2.95543e-06
2.78747e-06
2.50188e-06
2.39865e-06
2.20942e-06
2.27232e-06
2.24609e-06
2.16134e-06
2.28789e-06
2.16053e-06
2.22833e-06
2.05911e-06
2.01701e-06
2.30952e-06
2.48936e-06
2.48384e-06
2.41108e-06
2.57686e-06
2.79007e-06
2.73989e-06
2.71287e-06
2.81568e-06
2.78183e-06
3.01071e-06
3.48395e-06
3.55148e-06
3.60327e-06
3.8836e-06
4.3895e-06
4.47936e-06
4.89374e-06
5.98581e-06
6.93419e-06
8.13114e-06
9.29416e-06
1.00609e-05
1.0638e-05
1.11595e-05
1.18397e-05
1.24766e-05
1.31133e-05
1.36452e-05
1.42116e-05
1.47227e-05
1.52798e-05
1.5816e-05
1.63211e-05
1.68024e-05
1.73356e-05
1.77839e-05
1.82625e-05
1.86519e-05
1.90328e-05
1.92479e-05
1.9501e-05
1.95286e-05
1.95639e-05
1.96894e-05
1.94795e-05
1.96139e-05
1.95147e-05
1.94244e-05
1.93821e-05
1.92708e-05
1.92812e-05
1.92135e-05
1.91625e-05
1.90584e-05
1.90453e-05
1.89711e-05
1.89658e-05
1.89339e-05
1.88938e-05
1.88188e-05
1.87913e-05
1.87487e-05
1.87259e-05
1.86863e-05
1.86531e-05
1.85838e-05
1.8511e-05
1.84452e-05
1.83723e-05
1.82857e-05
1.8188e-05
1.80739e-05
1.7957e-05
1.78148e-05
1.76628e-05
1.74739e-05
1.72983e-05
1.71324e-05
1.69534e-05
1.67222e-05
1.64797e-05
1.6202e-05
1.58874e-05
1.55102e-05
1.50529e-05
1.43858e-05
1.33865e-05
1.21396e-05
1.11158e-05
9.79362e-06
5.92926e-06
6.90659e-07
3.16032e-06
6.42479e-06
2.57105e-06
2.51187e-07
4.84556e-07
9.54329e-07
7.75904e-07
7.0656e-07
4.19593e-07
4.78314e-07
9.75405e-08
2.65286e-07
2.98297e-06
3.49645e-06
5.77167e-07
6.00542e-06
1.8339e-05
2.0852e-05
1.95206e-05
2.22413e-05
2.5592e-05
2.75151e-05
2.829e-05
2.85083e-05
2.85392e-05
2.84362e-05
2.82473e-05
2.80541e-05
2.77973e-05
2.75496e-05
2.72339e-05
2.69531e-05
2.66645e-05
2.64676e-05
2.62657e-05
2.61442e-05
2.60135e-05
2.59367e-05
2.58576e-05
2.58249e-05
2.57306e-05
2.56465e-05
2.55906e-05
2.55678e-05
2.54828e-05
2.54853e-05
2.54882e-05
2.53856e-05
2.52023e-05
2.50045e-05
2.47841e-05
2.45542e-05
2.42977e-05
2.40436e-05
2.38261e-05
2.36861e-05
2.36593e-05
2.34956e-05
2.33435e-05
2.31816e-05
2.28929e-05
2.25887e-05
2.19429e-05
2.10515e-05
2.02137e-05
1.92083e-05
1.8176e-05
1.78787e-05
1.77775e-05
1.75338e-05
1.73446e-05
1.71484e-05
1.70379e-05
1.65413e-05
1.61923e-05
1.59056e-05
1.5167e-05
1.47621e-05
1.43844e-05
1.3768e-05
1.33388e-05
1.2662e-05
1.16497e-05
1.05745e-05
8.92077e-06
7.58159e-06
6.29849e-06
4.75805e-06
3.67885e-06
3.2183e-06
2.78219e-06
2.07912e-06
1.76866e-06
1.77497e-06
1.50616e-06
1.52361e-06
1.61236e-06
1.69143e-06
2.00008e-06
1.89896e-06
1.54329e-06
1.71287e-06
1.71941e-06
1.96475e-06
1.86149e-06
2.16102e-06
2.42715e-06
2.42328e-06
2.38236e-06
2.39519e-06
2.49223e-06
2.7095e-06
2.81363e-06
2.78617e-06
2.85328e-06
2.90336e-06
2.98861e-06
3.61095e-06
4.30446e-06
5.14442e-06
5.13888e-06
4.88687e-06
5.16896e-06
4.98635e-06
5.19827e-06
5.59893e-06
5.36331e-06
4.78678e-06
4.57185e-06
4.7388e-06
4.67868e-06
4.40541e-06
5.23859e-06
5.75095e-06
5.90745e-06
5.74064e-06
5.03737e-06
5.45312e-06
5.70309e-06
6.55162e-06
6.61412e-06
6.56463e-06
5.3146e-06
4.42344e-06
3.94001e-06
4.21805e-06
4.87399e-06
6.00533e-06
5.97372e-06
6.5035e-06
6.02691e-06
6.21634e-06
5.72835e-06
5.70699e-06
5.38824e-06
5.66259e-06
5.3472e-06
6.16778e-06
5.38707e-06
6.58424e-06
4.41204e-06
8.02685e-06
8.79447e-06
8.51632e-06
8.00324e-06
5.98447e-06
1.69956e-06
3.91067e-07
3.84892e-07
3.54356e-07
3.37805e-07
3.38132e-07
4.31291e-07
4.15784e-07
4.07976e-07
4.00997e-07
3.98665e-07
3.98464e-07
3.98154e-07
3.98057e-07
3.98071e-07
3.9831e-07
3.98498e-07
3.98369e-07
3.9811e-07
3.98134e-07
3.97961e-07
3.97832e-07
3.97804e-07
3.97802e-07
3.978e-07
3.978e-07
3.978e-07
3.978e-07
3.978e-07
3.978e-07
3.97801e-07
3.97803e-07
3.97822e-07
3.97892e-07
3.98103e-07
3.98128e-07
3.98398e-07
3.98483e-07
3.98285e-07
3.98199e-07
3.98068e-07
3.98111e-07
3.98439e-07
3.98299e-07
3.99894e-07
4.02142e-07
4.0781e-07
3.97517e-07
4.3312e-07
3.15327e-07
3.41521e-07
4.54494e-07
8.01195e-07
6.61049e-07
4.62979e-07
8.8626e-07
2.01713e-06
3.6616e-06
4.7845e-06
5.44671e-06
5.17593e-06
5.86678e-06
5.53505e-06
5.90389e-06
5.75572e-06
6.31775e-06
5.62924e-06
5.72084e-06
5.60186e-06
6.52629e-06
5.90315e-06
5.86867e-06
6.07123e-06
5.72036e-06
6.02001e-06
6.29318e-06
5.49941e-06
5.90455e-06
5.84433e-06
6.20158e-06
5.55133e-06
6.03236e-06
5.65166e-06
5.57457e-06
5.44408e-06
5.36329e-06
5.32096e-06
5.22784e-06
5.35026e-06
5.16406e-06
5.1534e-06
5.30241e-06
5.27579e-06
5.30004e-06
5.24271e-06
5.31641e-06
5.20801e-06
5.08298e-06
5.00718e-06
5.01017e-06
4.96922e-06
4.96156e-06
4.68049e-06
4.70381e-06
4.61641e-06
4.63935e-06
4.7337e-06
4.96557e-06
5.52614e-06
5.4783e-06
5.46869e-06
5.23716e-06
4.86308e-06
5.17026e-06
5.12348e-06
5.55433e-06
5.51782e-06
5.42914e-06
5.58871e-06
5.69033e-06
5.37356e-06
5.03868e-06
5.14788e-06
5.22557e-06
5.39661e-06
5.70662e-06
5.37466e-06
6.13828e-06
7.04e-06
7.58587e-06
8.16117e-06
8.77811e-06
9.69323e-06
1.03687e-05
1.12298e-05
1.18896e-05
1.25671e-05
1.3159e-05
1.37347e-05
1.42864e-05
1.4789e-05
1.52396e-05
1.56632e-05
1.59897e-05
1.62662e-05
1.64703e-05
1.66772e-05
1.67847e-05
1.68835e-05
1.69055e-05
1.69245e-05
1.67975e-05
1.67667e-05
1.66007e-05
1.65441e-05
1.64413e-05
1.6293e-05
1.62531e-05
1.61134e-05
1.6082e-05
1.59718e-05
1.58942e-05
1.58125e-05
1.57442e-05
1.56902e-05
1.56103e-05
1.5551e-05
1.54529e-05
1.53823e-05
1.52924e-05
1.52221e-05
1.51103e-05
1.50163e-05
1.4873e-05
1.47501e-05
1.45812e-05
1.44332e-05
1.42344e-05
1.40372e-05
1.37961e-05
1.35477e-05
1.32535e-05
1.29333e-05
1.25481e-05
1.2112e-05
1.15901e-05
1.0981e-05
1.0238e-05
9.37802e-06
8.43323e-06
7.45357e-06
6.47326e-06
5.51235e-06
4.51819e-06
3.41727e-06
2.26223e-06
1.3485e-06
9.95556e-07
1.11126e-06
1.00482e-06
4.11239e-07
3.80698e-07
1.9081e-07
1.22047e-07
6.96233e-08
5.39149e-07
5.06547e-07
1.88311e-07
7.11503e-08
1.82371e-07
5.4345e-07
4.42808e-07
5.75606e-07
2.39535e-07
5.16357e-07
6.85442e-07
2.96736e-07
1.89469e-07
2.60859e-06
2.98279e-06
1.06043e-06
1.7682e-06
4.91773e-06
7.0476e-06
7.42067e-06
8.20146e-06
9.7752e-06
1.13302e-05
1.23466e-05
1.31742e-05
1.39503e-05
1.47325e-05
1.54131e-05
1.61393e-05
1.68183e-05
1.74978e-05
1.80768e-05
1.85706e-05
1.89639e-05
1.931e-05
1.95802e-05
1.9823e-05
2.00111e-05
2.01754e-05
2.02675e-05
2.03502e-05
2.03959e-05
2.04096e-05
2.04244e-05
2.04902e-05
2.05024e-05
2.05301e-05
2.05186e-05
2.04252e-05
2.03973e-05
2.01694e-05
2.01518e-05
1.99329e-05
1.98242e-05
1.96848e-05
1.95915e-05
1.95621e-05
1.95976e-05
1.95592e-05
1.9485e-05
1.9242e-05
1.89619e-05
1.86647e-05
1.8597e-05
1.83022e-05
1.81894e-05
1.77602e-05
1.73912e-05
1.71731e-05
1.69488e-05
1.69937e-05
1.63851e-05
1.60804e-05
1.57453e-05
1.52905e-05
1.48947e-05
1.44258e-05
1.43747e-05
1.37115e-05
1.29935e-05
1.21423e-05
1.11308e-05
1.01312e-05
9.89696e-06
8.80983e-06
7.78777e-06
7.08014e-06
6.70964e-06
5.99121e-06
5.94806e-06
5.52258e-06
5.15367e-06
4.74884e-06
4.76257e-06
4.79167e-06
4.60418e-06
4.19805e-06
4.20398e-06
4.57686e-06
4.652e-06
5.01698e-06
5.19e-06
5.20489e-06
5.10753e-06
5.06277e-06
5.06303e-06
5.34082e-06
5.16975e-06
5.0906e-06
5.13471e-06
5.16358e-06
5.28206e-06
5.23735e-06
5.16915e-06
5.31861e-06
5.07977e-06
5.20519e-06
5.08599e-06
5.1285e-06
5.13005e-06
4.83589e-06
4.78886e-06
4.41965e-06
4.56645e-06
4.42787e-06
4.60037e-06
5.18638e-06
5.93196e-06
5.9745e-06
5.51978e-06
5.76897e-06
5.80428e-06
6.46907e-06
6.61007e-06
7.29803e-06
7.34383e-06
7.16924e-06
6.66986e-06
6.15917e-06
5.60283e-06
5.44265e-06
4.37532e-06
4.68231e-06
3.32145e-06
4.58984e-06
2.38065e-06
4.13176e-06
1.9575e-06
3.17165e-06
2.30696e-06
2.43891e-06
1.36169e-06
1.71414e-06
1.56105e-06
2.3752e-06
1.48835e-06
1.99478e-06
6.19305e-07
3.99336e-06
7.46574e-06
9.22405e-06
1.02498e-05
1.16581e-05
7.21899e-06
2.92116e-06
1.11774e-06
5.58317e-07
5.47063e-07
4.77899e-07
3.94331e-07
3.97377e-07
4.03811e-07
4.00845e-07
3.98591e-07
3.9846e-07
3.98079e-07
3.98018e-07
3.98081e-07
3.9829e-07
3.98409e-07
3.98438e-07
3.9812e-07
3.9812e-07
3.97882e-07
3.97823e-07
3.97804e-07
3.97801e-07
3.978e-07
3.978e-07
3.978e-07
3.978e-07
3.978e-07
3.978e-07
3.97801e-07
3.97803e-07
3.97902e-07
3.97935e-07
3.98119e-07
3.98201e-07
3.98412e-07
3.98397e-07
3.9832e-07
3.98065e-07
3.97975e-07
3.97972e-07
3.98259e-07
3.98225e-07
4.00038e-07
4.03147e-07
4.0294e-07
4.09221e-07
4.08813e-07
4.79559e-07
5.35944e-07
4.20582e-07
4.07736e-07
4.47006e-07
3.82272e-07
1.54743e-08
4.20887e-08
5.98301e-07
6.03319e-07
3.91458e-07
5.20281e-07
8.72156e-07
5.96814e-07
3.73014e-07
7.85236e-07
9.26038e-07
5.69791e-07
1.19368e-06
8.04928e-07
1.46169e-06
8.92124e-07
1.50818e-06
1.20184e-06
1.52806e-06
1.67781e-06
1.88931e-06
1.4209e-06
1.78983e-06
1.97358e-06
2.11825e-06
1.94579e-06
2.2915e-06
2.15233e-06
1.96369e-06
1.92368e-06
1.60523e-06
1.98574e-06
1.73542e-06
2.19175e-06
1.76249e-06
1.97643e-06
2.27911e-06
2.51395e-06
2.66087e-06
2.66401e-06
2.74576e-06
2.86834e-06
2.68592e-06
2.87744e-06
3.05122e-06
2.90589e-06
2.94159e-06
2.73638e-06
2.54512e-06
2.44189e-06
2.50016e-06
2.87006e-06
3.15346e-06
4.22937e-06
3.94523e-06
2.99645e-06
2.54312e-06
2.60437e-06
3.34265e-06
3.54745e-06
4.2227e-06
4.79979e-06
4.6135e-06
4.18181e-06
4.05753e-06
4.00831e-06
3.68342e-06
3.63743e-06
3.71128e-06
4.16902e-06
4.60416e-06
4.25755e-06
4.65723e-06
5.52234e-06
5.77374e-06
5.71203e-06
6.31222e-06
7.33512e-06
8.15291e-06
9.02867e-06
9.65746e-06
1.02126e-05
1.08467e-05
1.13659e-05
1.18221e-05
1.22925e-05
1.26219e-05
1.29503e-05
1.30595e-05
1.30775e-05
1.30617e-05
1.30431e-05
1.29036e-05
1.28203e-05
1.26951e-05
1.2494e-05
1.21811e-05
1.20051e-05
1.17079e-05
1.16675e-05
1.13576e-05
1.12992e-05
1.11737e-05
1.09767e-05
1.10016e-05
1.07608e-05
1.07458e-05
1.05837e-05
1.05272e-05
1.04363e-05
1.03139e-05
1.02249e-05
1.00663e-05
9.97819e-06
9.82155e-06
9.7141e-06
9.52111e-06
9.37253e-06
9.13121e-06
8.94552e-06
8.66334e-06
8.41109e-06
8.04767e-06
7.68144e-06
7.21352e-06
6.72813e-06
6.13853e-06
5.51045e-06
4.79306e-06
4.06228e-06
3.32368e-06
2.63888e-06
2.03675e-06
1.52532e-06
1.14799e-06
8.44743e-07
6.68738e-07
5.28264e-07
4.76836e-07
4.20166e-07
4.36318e-07
4.50354e-07
4.52254e-07
4.10192e-07
4.10931e-07
4.65642e-07
4.93962e-07
4.71552e-07
4.9868e-07
5.20679e-07
3.85849e-07
3.48393e-07
5.15098e-07
6.33617e-07
5.12096e-07
3.19655e-07
3.97589e-07
4.23042e-07
4.4405e-07
3.01191e-07
3.20292e-07
3.93584e-07
3.50118e-07
4.21123e-07
5.20629e-07
3.6149e-07
3.52801e-07
6.53187e-07
8.16801e-07
6.46173e-07
6.95986e-07
1.11157e-06
1.46068e-06
1.66546e-06
1.89864e-06
2.27293e-06
2.67969e-06
3.07763e-06
3.63403e-06
4.33419e-06
5.18145e-06
6.10714e-06
7.1098e-06
8.18136e-06
9.31218e-06
1.03993e-05
1.13805e-05
1.21922e-05
1.2857e-05
1.33351e-05
1.36769e-05
1.39567e-05
1.412e-05
1.41745e-05
1.4319e-05
1.4396e-05
1.45497e-05
1.46219e-05
1.47206e-05
1.48004e-05
1.47097e-05
1.47142e-05
1.45843e-05
1.44996e-05
1.43327e-05
1.42367e-05
1.40985e-05
1.43145e-05
1.4401e-05
1.47685e-05
1.48199e-05
1.47246e-05
1.43348e-05
1.43862e-05
1.41032e-05
1.43825e-05
1.42063e-05
1.37738e-05
1.37397e-05
1.33876e-05
1.41785e-05
1.36721e-05
1.34077e-05
1.33212e-05
1.29081e-05
1.25819e-05
1.20972e-05
1.25825e-05
1.26995e-05
1.22556e-05
1.14557e-05
1.05612e-05
1.01528e-05
1.00375e-05
8.88172e-06
7.51732e-06
7.0741e-06
6.87141e-06
5.98071e-06
5.72167e-06
5.47699e-06
5.01348e-06
4.46813e-06
4.30199e-06
4.20589e-06
3.85786e-06
2.95678e-06
2.86942e-06
3.28423e-06
3.58565e-06
4.04247e-06
4.65391e-06
4.82304e-06
4.79174e-06
4.53945e-06
4.10793e-06
4.10944e-06
3.83646e-06
3.69232e-06
3.95195e-06
4.1157e-06
3.88675e-06
4.02937e-06
4.07145e-06
3.88084e-06
3.08943e-06
2.75642e-06
2.87222e-06
2.51679e-06
2.15549e-06
1.7068e-06
1.66719e-06
1.45616e-06
1.31278e-06
1.32496e-06
1.76744e-06
2.70737e-06
3.46432e-06
3.39653e-06
2.89631e-06
3.27585e-06
3.69674e-06
4.55046e-06
4.52882e-06
5.24951e-06
4.74826e-06
4.78993e-06
3.56112e-06
3.52546e-06
1.78178e-06
1.88503e-06
8.70005e-07
1.00714e-06
4.54788e-07
8.30369e-07
5.11241e-07
6.52756e-07
2.28816e-07
4.66971e-07
6.40057e-07
1.53683e-07
4.00449e-07
1.47113e-07
3.51476e-07
2.73165e-07
2.57587e-07
2.71603e-07
2.41531e-07
4.72774e-07
3.54492e-06
5.32455e-06
5.81665e-06
1.06483e-05
1.00409e-05
5.53713e-06
2.01051e-06
7.44864e-07
3.90865e-07
4.57245e-07
3.80392e-07
4.07829e-07
4.02932e-07
4.00355e-07
3.98653e-07
3.9864e-07
3.98146e-07
3.97959e-07
3.98124e-07
3.98346e-07
3.986e-07
3.98354e-07
3.98143e-07
3.98081e-07
3.9799e-07
3.97834e-07
3.97804e-07
3.97801e-07
3.978e-07
3.97798e-07
3.978e-07
3.978e-07
3.978e-07
3.978e-07
3.97801e-07
3.97803e-07
3.97765e-07
3.97962e-07
3.98107e-07
3.98158e-07
3.98263e-07
3.98523e-07
3.98216e-07
3.98097e-07
3.98051e-07
3.98037e-07
3.98314e-07
3.9831e-07
4.00466e-07
4.06594e-07
4.22925e-07
4.29004e-07
3.82603e-07
4.38195e-07
2.95692e-07
4.84859e-07
5.58596e-07
7.42576e-07
8.43462e-07
8.33268e-07
6.1901e-07
5.6058e-07
5.01683e-07
5.63766e-07
4.85548e-07
5.10516e-07
2.83222e-07
3.31027e-07
2.45289e-07
2.78311e-07
3.62143e-07
2.17793e-07
3.62455e-07
2.16898e-07
4.11089e-07
9.52774e-08
4.18065e-07
2.89283e-07
2.80752e-07
2.95369e-07
3.84315e-07
3.12579e-07
3.74083e-07
4.5005e-07
4.51136e-07
3.07386e-07
5.1295e-07
3.19134e-07
4.18012e-07
3.89244e-07
3.942e-07
4.37069e-07
3.66769e-07
3.98769e-07
3.80893e-07
4.67721e-07
5.91305e-07
6.13203e-07
6.55362e-07
7.24037e-07
8.29318e-07
7.87682e-07
8.94258e-07
9.43499e-07
8.70389e-07
8.90213e-07
8.32506e-07
7.47576e-07
7.36449e-07
8.05362e-07
9.9773e-07
1.24259e-06
1.91665e-06
1.59648e-06
8.89893e-07
8.45829e-07
9.85054e-07
1.37072e-06
1.47489e-06
2.14415e-06
2.94397e-06
2.59119e-06
1.99748e-06
1.88806e-06
1.98751e-06
1.81678e-06
1.76699e-06
1.83611e-06
2.28194e-06
2.66068e-06
2.26583e-06
2.45523e-06
3.06051e-06
3.1288e-06
2.91169e-06
3.47945e-06
4.3264e-06
4.93566e-06
5.51851e-06
5.75005e-06
5.93091e-06
6.29213e-06
6.47476e-06
6.62854e-06
6.79697e-06
6.84842e-06
6.84828e-06
6.62104e-06
6.35149e-06
6.1291e-06
5.92283e-06
5.61136e-06
5.39501e-06
5.18474e-06
4.77866e-06
4.46259e-06
4.23086e-06
4.0338e-06
3.95672e-06
3.70527e-06
3.72223e-06
3.56911e-06
3.46755e-06
3.47992e-06
3.30828e-06
3.31254e-06
3.20563e-06
3.17046e-06
3.13187e-06
3.03877e-06
3.00229e-06
2.89538e-06
2.85407e-06
2.75961e-06
2.69899e-06
2.5936e-06
2.50346e-06
2.37099e-06
2.26917e-06
2.11533e-06
1.98471e-06
1.7957e-06
1.62149e-06
1.4074e-06
1.21894e-06
1.00783e-06
8.32565e-07
6.63407e-07
5.4623e-07
4.60523e-07
4.13194e-07
3.90703e-07
3.74282e-07
3.73691e-07
3.67286e-07
3.75182e-07
3.72802e-07
3.7849e-07
3.74497e-07
3.74121e-07
3.68991e-07
3.72356e-07
3.76925e-07
3.77764e-07
3.68912e-07
3.6349e-07
3.66159e-07
3.54844e-07
3.4095e-07
3.81889e-07
4.22338e-07
3.31005e-07
2.21819e-07
3.07945e-07
5.149e-07
3.95514e-07
3.83509e-07
4.35424e-07
4.85362e-07
4.5513e-07
4.19456e-07
3.97579e-07
3.87548e-07
3.87604e-07
3.84482e-07
3.82751e-07
3.91884e-07
3.92581e-07
3.8394e-07
3.74117e-07
3.94695e-07
3.94743e-07
4.11179e-07
4.14029e-07
4.46812e-07
4.72282e-07
4.95259e-07
5.3634e-07
6.06918e-07
7.05896e-07
8.5699e-07
1.04278e-06
1.31031e-06
1.70488e-06
2.22845e-06
2.84331e-06
3.43523e-06
4.0089e-06
4.44487e-06
4.79354e-06
5.04714e-06
5.25419e-06
5.26132e-06
5.38524e-06
5.41368e-06
5.54405e-06
5.63938e-06
5.78187e-06
5.85015e-06
5.86621e-06
5.79772e-06
5.87407e-06
5.75529e-06
5.60759e-06
5.47822e-06
5.30887e-06
5.46394e-06
5.76513e-06
6.21367e-06
6.43078e-06
6.41237e-06
6.11277e-06
6.10585e-06
6.00502e-06
6.50471e-06
6.55205e-06
6.08624e-06
6.16032e-06
5.9709e-06
7.08763e-06
6.97784e-06
6.86351e-06
6.9617e-06
6.81294e-06
6.55968e-06
6.1233e-06
7.0857e-06
8.2167e-06
8.25263e-06
7.69402e-06
6.72714e-06
6.80307e-06
7.1529e-06
6.12983e-06
4.60124e-06
4.3273e-06
4.1536e-06
3.40302e-06
3.27178e-06
3.47755e-06
3.03711e-06
2.3399e-06
2.09875e-06
1.88649e-06
1.48374e-06
8.7656e-07
8.51323e-07
1.10144e-06
1.36989e-06
1.75787e-06
2.47321e-06
2.82214e-06
2.80353e-06
2.48649e-06
2.01982e-06
1.92262e-06
1.77301e-06
1.62591e-06
1.88803e-06
2.07862e-06
1.74583e-06
1.77612e-06
1.84999e-06
1.62491e-06
1.08172e-06
8.40922e-07
1.01141e-06
8.32656e-07
7.58353e-07
6.55574e-07
6.05143e-07
5.86142e-07
5.16118e-07
5.56579e-07
6.55501e-07
1.02977e-06
1.35142e-06
1.2368e-06
1.06459e-06
1.32008e-06
1.67898e-06
2.28146e-06
2.18167e-06
2.56565e-06
1.95321e-06
2.24113e-06
1.18961e-06
1.34239e-06
5.92313e-07
6.11042e-07
6.98118e-07
8.02588e-07
8.49904e-07
7.65083e-07
8.58234e-07
8.03037e-07
7.35533e-07
8.9049e-07
1.26472e-06
4.68556e-07
1.39759e-06
9.32744e-07
7.18964e-07
1.57919e-06
5.11015e-07
1.68634e-06
7.73177e-07
1.10321e-06
1.73756e-06
3.22289e-06
2.68282e-06
5.2533e-06
9.76155e-06
7.04805e-06
2.81771e-06
9.1674e-07
4.1488e-07
3.75521e-07
4.59536e-07
4.48405e-07
4.11355e-07
4.01538e-07
3.98932e-07
3.98712e-07
3.98159e-07
3.98017e-07
3.98122e-07
3.98368e-07
3.98569e-07
3.98332e-07
3.98202e-07
3.98036e-07
3.97926e-07
3.97844e-07
3.97805e-07
3.97801e-07
3.97801e-07
3.97808e-07
3.978e-07
3.978e-07
3.978e-07
3.978e-07
3.97801e-07
3.97805e-07
3.97837e-07
3.97955e-07
3.98091e-07
3.98165e-07
3.98289e-07
3.98547e-07
3.98304e-07
3.98141e-07
3.98003e-07
3.98075e-07
3.98294e-07
3.98052e-07
3.98857e-07
3.99616e-07
4.02531e-07
3.90375e-07
4.11992e-07
3.27436e-07
4.42986e-07
4.21016e-07
2.98322e-07
1.96844e-07
4.29265e-07
5.80767e-07
6.79058e-07
7.03271e-07
6.46274e-07
6.48758e-07
7.26789e-07
7.15205e-07
8.11765e-07
7.45715e-07
7.8147e-07
6.95734e-07
7.33849e-07
6.85232e-07
7.49198e-07
7.04587e-07
8.01522e-07
7.10295e-07
6.95866e-07
6.76094e-07
7.76495e-07
6.83594e-07
6.85764e-07
6.90073e-07
7.1245e-07
6.33574e-07
6.8647e-07
7.16914e-07
5.88258e-07
7.87331e-07
6.18508e-07
6.93765e-07
7.15681e-07
6.44063e-07
7.2079e-07
6.79693e-07
7.05755e-07
6.80433e-07
6.70553e-07
6.75908e-07
6.67978e-07
6.62532e-07
6.60824e-07
6.72499e-07
6.68641e-07
6.72291e-07
6.52305e-07
6.70195e-07
6.60291e-07
6.78405e-07
6.91115e-07
7.28312e-07
7.54851e-07
8.40752e-07
9.63154e-07
8.54004e-07
7.24737e-07
7.6623e-07
8.16601e-07
8.99037e-07
9.38675e-07
1.27771e-06
1.65182e-06
1.36091e-06
1.08613e-06
1.10901e-06
1.15846e-06
1.19126e-06
1.17747e-06
1.20969e-06
1.46956e-06
1.65828e-06
1.43422e-06
1.57245e-06
1.88676e-06
1.95797e-06
2.00945e-06
2.25255e-06
2.33085e-06
2.46159e-06
2.41206e-06
2.26284e-06
2.13491e-06
2.10316e-06
2.03546e-06
1.93779e-06
1.86667e-06
1.78074e-06
1.66446e-06
1.52848e-06
1.36913e-06
1.28896e-06
1.18354e-06
1.08296e-06
9.91247e-07
9.36038e-07
8.04953e-07
7.65569e-07
7.05829e-07
6.85531e-07
6.60005e-07
6.32323e-07
6.23096e-07
6.01996e-07
5.93893e-07
5.88268e-07
5.73558e-07
5.65169e-07
5.56572e-07
5.51576e-07
5.48657e-07
5.3951e-07
5.33533e-07
5.23996e-07
5.14853e-07
5.11698e-07
5.02173e-07
4.9808e-07
4.84476e-07
4.77469e-07
4.65313e-07
4.5749e-07
4.47312e-07
4.38662e-07
4.29185e-07
4.22358e-07
4.18457e-07
4.17567e-07
4.18635e-07
4.21765e-07
4.25045e-07
4.27784e-07
4.27852e-07
4.26499e-07
4.2428e-07
4.25092e-07
4.25771e-07
4.28062e-07
4.27412e-07
4.27654e-07
4.25293e-07
4.25331e-07
4.24169e-07
4.2458e-07
4.22173e-07
4.23343e-07
4.25258e-07
4.27843e-07
4.2815e-07
4.34478e-07
4.44709e-07
4.29667e-07
4.06264e-07
4.49392e-07
5.6762e-07
4.35422e-07
3.49014e-07
4.37894e-07
4.06214e-07
3.40998e-07
3.32999e-07
3.57209e-07
3.87836e-07
4.00335e-07
4.07382e-07
4.06454e-07
4.0894e-07
4.09615e-07
4.12794e-07
4.12208e-07
4.15884e-07
4.16242e-07
4.17934e-07
4.15537e-07
4.14876e-07
4.11769e-07
4.07311e-07
4.04468e-07
4.03729e-07
4.07732e-07
4.11014e-07
4.14851e-07
4.20108e-07
4.32974e-07
4.45611e-07
4.69127e-07
5.06429e-07
5.5954e-07
6.17033e-07
6.91545e-07
7.51376e-07
8.01986e-07
8.47775e-07
8.78467e-07
8.76448e-07
8.88925e-07
8.99322e-07
9.06435e-07
9.54431e-07
9.72987e-07
9.98818e-07
9.90782e-07
9.67677e-07
1.01518e-06
9.767e-07
9.55845e-07
9.158e-07
8.86514e-07
9.00851e-07
1.03622e-06
1.16595e-06
1.25106e-06
1.22702e-06
1.16628e-06
1.10981e-06
1.15059e-06
1.32945e-06
1.41121e-06
1.25449e-06
1.2426e-06
1.2548e-06
1.62936e-06
1.73327e-06
1.71919e-06
1.86352e-06
1.83414e-06
1.89379e-06
1.62496e-06
2.099e-06
3.05501e-06
3.47863e-06
3.73436e-06
3.09787e-06
3.33398e-06
3.89608e-06
3.29487e-06
2.44506e-06
2.16151e-06
1.97649e-06
1.47043e-06
1.26262e-06
1.57204e-06
1.48381e-06
1.16767e-06
1.07045e-06
9.51517e-07
7.76767e-07
6.60853e-07
6.26523e-07
6.43869e-07
6.84574e-07
7.80158e-07
1.09357e-06
1.33721e-06
1.31772e-06
1.15357e-06
9.60984e-07
9.18014e-07
8.81594e-07
8.46411e-07
9.49319e-07
1.03191e-06
9.21109e-07
9.10955e-07
9.63097e-07
9.19903e-07
8.34464e-07
7.81791e-07
8.09359e-07
7.7627e-07
7.71966e-07
7.45765e-07
7.08613e-07
7.18961e-07
7.0925e-07
7.53537e-07
7.84218e-07
8.0609e-07
8.11424e-07
8.08945e-07
8.09069e-07
8.72746e-07
9.81286e-07
1.20575e-06
1.12784e-06
1.21748e-06
9.23733e-07
1.15059e-06
6.99013e-07
8.66808e-07
6.8157e-07
7.23616e-07
6.33449e-07
6.06299e-07
3.93008e-07
5.57488e-07
3.90446e-07
4.79779e-07
4.95994e-07
1.99785e-07
1.73782e-07
6.2935e-07
4.14251e-07
3.96641e-07
1.67108e-07
9.22228e-07
1.17957e-07
8.80534e-07
7.78419e-08
9.41703e-07
4.8043e-07
1.81545e-06
1.14975e-06
1.37192e-06
7.78115e-06
7.75948e-06
3.62438e-06
1.01886e-06
3.72252e-07
2.70605e-07
4.62533e-07
4.29668e-07
4.17274e-07
4.02839e-07
3.98944e-07
3.9867e-07
3.98206e-07
3.98069e-07
3.98101e-07
3.98393e-07
3.98492e-07
3.98271e-07
3.98206e-07
3.9806e-07
3.97937e-07
3.97834e-07
3.97804e-07
3.97801e-07
3.97801e-07
3.97795e-07
3.978e-07
3.978e-07
3.978e-07
3.978e-07
3.97801e-07
3.97805e-07
3.97831e-07
3.97951e-07
3.98055e-07
3.98182e-07
3.98222e-07
3.98445e-07
3.98261e-07
3.98086e-07
3.98021e-07
3.97957e-07
3.98161e-07
3.9818e-07
3.99502e-07
4.0116e-07
4.00364e-07
4.073e-07
4.17503e-07
3.67402e-07
4.27e-07
4.11956e-07
5.62356e-07
6.17636e-07
3.10035e-07
3.8848e-07
3.78087e-07
4.33821e-07
5.09953e-07
4.39144e-07
4.85163e-07
4.45584e-07
4.85209e-07
4.91741e-07
5.26262e-07
5.45663e-07
5.28596e-07
5.55184e-07
4.96113e-07
5.65816e-07
4.96593e-07
6.44078e-07
4.97555e-07
6.43796e-07
4.82456e-07
6.54592e-07
5.60884e-07
6.02828e-07
5.68832e-07
6.36567e-07
5.63967e-07
6.06249e-07
6.36159e-07
5.13746e-07
7.01849e-07
5.43001e-07
6.30641e-07
6.18252e-07
5.97322e-07
6.28176e-07
6.25372e-07
6.35571e-07
6.52178e-07
6.4166e-07
6.54227e-07
6.43068e-07
6.61518e-07
6.46557e-07
6.53914e-07
6.43359e-07
6.5008e-07
6.50225e-07
6.54212e-07
6.71663e-07
6.83468e-07
7.09265e-07
7.31331e-07
7.64352e-07
7.80745e-07
7.55042e-07
7.53794e-07
7.92701e-07
8.46624e-07
8.80444e-07
9.38275e-07
1.10012e-06
1.17926e-06
1.00986e-06
9.41385e-07
9.94896e-07
1.0483e-06
1.15431e-06
1.09785e-06
1.16552e-06
1.35315e-06
1.3408e-06
1.32763e-06
1.46177e-06
1.57155e-06
1.5205e-06
1.42736e-06
1.25832e-06
1.15791e-06
1.04917e-06
9.74407e-07
8.25908e-07
7.57194e-07
7.08493e-07
6.71743e-07
6.06948e-07
5.95937e-07
5.47758e-07
5.322e-07
5.04847e-07
4.77383e-07
4.75373e-07
4.53327e-07
4.47422e-07
4.31153e-07
4.31948e-07
4.14905e-07
4.21761e-07
4.08653e-07
4.17919e-07
4.07135e-07
4.14819e-07
4.06748e-07
4.11076e-07
4.07173e-07
4.09804e-07
4.06415e-07
4.085e-07
4.05125e-07
4.07323e-07
4.05436e-07
4.05779e-07
4.04998e-07
4.0492e-07
4.04286e-07
4.03707e-07
4.03346e-07
4.03493e-07
4.03682e-07
4.03866e-07
4.04681e-07
4.04734e-07
4.05725e-07
4.05628e-07
4.05952e-07
4.05616e-07
4.04631e-07
4.02747e-07
3.99896e-07
3.95901e-07
3.92183e-07
3.8894e-07
3.86891e-07
3.87265e-07
3.88467e-07
3.90035e-07
3.89598e-07
3.88318e-07
3.85831e-07
3.84998e-07
3.84445e-07
3.85646e-07
3.85179e-07
3.8586e-07
3.85691e-07
3.85985e-07
3.85222e-07
3.84672e-07
3.828e-07
3.79573e-07
3.73203e-07
3.75162e-07
3.86805e-07
3.66996e-07
2.80996e-07
3.72671e-07
4.55859e-07
3.84482e-07
4.32108e-07
4.6517e-07
4.53465e-07
4.25346e-07
4.07828e-07
3.96159e-07
3.92646e-07
3.88085e-07
3.8658e-07
3.84233e-07
3.83975e-07
3.82722e-07
3.83043e-07
3.8251e-07
3.853e-07
3.86518e-07
3.88131e-07
3.9318e-07
3.97195e-07
3.98645e-07
3.95751e-07
3.95133e-07
3.94556e-07
3.94651e-07
3.91412e-07
3.87376e-07
3.85381e-07
3.86654e-07
3.90552e-07
3.98128e-07
4.03637e-07
4.10633e-07
4.15758e-07
4.19056e-07
4.21689e-07
4.21546e-07
4.21009e-07
4.20455e-07
4.2113e-07
4.19196e-07
4.24863e-07
4.24709e-07
4.28865e-07
4.28809e-07
4.28322e-07
4.3435e-07
4.33117e-07
4.31778e-07
4.29801e-07
4.28774e-07
4.28378e-07
4.43721e-07
4.58132e-07
4.66801e-07
4.67677e-07
4.6815e-07
4.56021e-07
4.70876e-07
4.87225e-07
5.07177e-07
4.96827e-07
4.86438e-07
5.07988e-07
5.48659e-07
5.7268e-07
5.90286e-07
6.30718e-07
6.27841e-07
6.87655e-07
6.27392e-07
7.0173e-07
9.5763e-07
1.1226e-06
1.48921e-06
1.4534e-06
1.51062e-06
2.04721e-06
2.03031e-06
1.67396e-06
1.50187e-06
1.36559e-06
1.28469e-06
1.04562e-06
9.99148e-07
1.02084e-06
9.32435e-07
8.96929e-07
8.70018e-07
7.80953e-07
7.64065e-07
7.23138e-07
7.00508e-07
6.7133e-07
6.42645e-07
7.10959e-07
8.23546e-07
8.07605e-07
7.58337e-07
6.86915e-07
6.89815e-07
6.85004e-07
6.75461e-07
7.17726e-07
7.3822e-07
7.09704e-07
7.02667e-07
7.20086e-07
7.26677e-07
7.25774e-07
6.89011e-07
6.97958e-07
6.99114e-07
6.71063e-07
6.57132e-07
6.15131e-07
6.0703e-07
5.92512e-07
6.27901e-07
6.66362e-07
7.07185e-07
7.14425e-07
7.28843e-07
7.2213e-07
7.752e-07
8.25789e-07
8.90723e-07
8.37001e-07
8.36203e-07
7.21609e-07
8.07976e-07
6.09945e-07
6.67565e-07
5.63761e-07
5.47898e-07
5.16218e-07
5.31289e-07
6.33626e-07
5.10316e-07
6.80777e-07
6.61252e-07
7.49635e-07
9.36993e-07
8.49339e-07
6.14801e-07
9.54574e-07
8.06951e-07
6.64722e-07
1.54324e-06
1.56302e-07
1.46641e-06
2.59646e-07
1.34615e-06
4.12184e-07
1.13456e-06
1.29962e-06
9.61524e-08
5.45268e-06
7.87724e-06
4.47696e-06
1.29708e-06
6.7051e-07
4.49483e-07
3.68368e-07
3.76602e-07
4.05662e-07
4.02465e-07
3.99202e-07
3.98863e-07
3.98248e-07
3.98069e-07
3.98125e-07
3.98369e-07
3.98521e-07
3.98287e-07
3.98133e-07
3.98007e-07
3.97904e-07
3.97858e-07
3.97803e-07
3.97801e-07
3.97801e-07
3.978e-07
3.978e-07
3.978e-07
3.97798e-07
3.978e-07
3.97801e-07
3.97803e-07
3.97854e-07
3.9788e-07
3.97988e-07
3.9811e-07
3.98238e-07
3.98402e-07
3.98281e-07
3.98151e-07
3.98075e-07
3.98075e-07
3.98315e-07
3.98291e-07
3.99958e-07
4.05014e-07
4.22224e-07
4.36382e-07
3.7422e-07
4.4541e-07
3.99832e-07
4.35051e-07
2.96538e-07
3.82286e-07
6.10459e-07
4.5437e-07
5.37041e-07
4.65697e-07
4.85783e-07
5.38491e-07
4.86177e-07
5.4951e-07
4.87038e-07
5.36352e-07
4.83301e-07
5.37325e-07
5.10313e-07
5.5464e-07
5.31469e-07
5.50706e-07
5.20403e-07
5.42246e-07
5.7228e-07
5.14383e-07
6.08108e-07
5.07252e-07
6.05612e-07
5.49594e-07
5.94219e-07
5.39762e-07
6.13548e-07
5.45284e-07
6.11439e-07
5.92309e-07
5.43786e-07
6.47075e-07
5.50179e-07
6.11795e-07
6.01282e-07
5.98173e-07
6.25361e-07
6.11515e-07
6.38838e-07
6.23357e-07
6.46549e-07
6.39783e-07
6.45048e-07
6.46539e-07
6.37241e-07
6.42167e-07
6.45965e-07
6.54983e-07
6.59117e-07
6.78561e-07
6.8621e-07
7.06717e-07
7.2412e-07
7.44468e-07
7.4611e-07
7.51524e-07
7.73217e-07
8.16163e-07
8.54857e-07
8.78074e-07
9.26497e-07
9.72784e-07
9.47125e-07
8.69212e-07
8.84133e-07
9.47444e-07
9.97793e-07
1.02664e-06
1.02719e-06
1.11703e-06
1.1435e-06
1.12922e-06
1.1642e-06
1.18057e-06
1.0867e-06
9.42923e-07
8.06823e-07
7.0315e-07
6.087e-07
5.78543e-07
5.28676e-07
4.92834e-07
4.64439e-07
4.55929e-07
4.43044e-07
4.29636e-07
4.24024e-07
4.17652e-07
4.12769e-07
4.10105e-07
4.03451e-07
4.07571e-07
4.00198e-07
4.03952e-07
3.97174e-07
4.03724e-07
3.95426e-07
4.02444e-07
3.96722e-07
4.02398e-07
3.96485e-07
4.01581e-07
3.97686e-07
4.0002e-07
3.98806e-07
3.996e-07
3.99233e-07
4.00102e-07
3.99163e-07
3.99984e-07
3.99093e-07
3.99248e-07
3.99352e-07
3.99146e-07
3.99073e-07
3.99208e-07
3.98619e-07
3.99191e-07
3.98938e-07
3.99496e-07
3.98736e-07
3.99524e-07
3.98868e-07
3.9979e-07
3.99184e-07
4.00358e-07
4.0074e-07
4.03063e-07
4.04869e-07
4.08065e-07
4.11054e-07
4.14811e-07
4.16782e-07
4.17494e-07
4.15609e-07
4.13839e-07
4.11589e-07
4.12062e-07
4.13188e-07
4.15176e-07
4.15129e-07
4.14656e-07
4.13075e-07
4.13027e-07
4.12296e-07
4.12155e-07
4.12389e-07
4.13345e-07
4.14426e-07
4.17682e-07
4.23461e-07
4.28239e-07
4.2929e-07
4.3857e-07
5.02806e-07
3.93613e-07
4.08884e-07
3.94185e-07
3.41799e-07
3.30763e-07
3.55025e-07
3.77895e-07
3.97107e-07
4.05605e-07
4.12205e-07
4.13305e-07
4.15016e-07
4.13674e-07
4.14596e-07
4.13466e-07
4.13254e-07
4.1172e-07
4.104e-07
4.07444e-07
4.05569e-07
4.01287e-07
4.00347e-07
4.01698e-07
4.02966e-07
4.03621e-07
4.03608e-07
4.0616e-07
4.10258e-07
4.14495e-07
4.17305e-07
4.16428e-07
4.14084e-07
4.1021e-07
4.06922e-07
4.03667e-07
4.01935e-07
4.00184e-07
3.99561e-07
3.98589e-07
3.9833e-07
3.97933e-07
3.9799e-07
3.97586e-07
3.98012e-07
3.97242e-07
3.9861e-07
3.99264e-07
4.00201e-07
4.0225e-07
4.02522e-07
4.02916e-07
4.01936e-07
4.024e-07
4.01592e-07
4.0407e-07
4.05354e-07
4.06151e-07
4.06788e-07
4.10513e-07
4.07393e-07
4.1093e-07
4.11719e-07
4.14702e-07
4.18609e-07
4.13658e-07