/*--------------------------------*- C++ -*----------------------------------*\
| =========                 |                                                 |
| \\      /  F ield         | OpenFOAM: The Open Source CFD Toolbox           |
|  \\    /   O peration     | Version:  v2006                                 |
|   \\  /    A nd           | Website:  www.openfoam.com                      |
|    \\/     M anipulation  |                                                 |
\*---------------------------------------------------------------------------*/
FoamFile
{
    version     2.0;
    format      ascii;
    class       volScalarField;
    location    "25";
    object      p;
}
// * * * * * * * * * * * * * * * * * * * * * * * * * * * * * * * * * * * * * //

dimensions      [1 -1 -2 0 0 0 0];


internalField   nonuniform List<scalar> 
93840
(
1.00012
0.99999
1.00028
1.00033
1.00086
1.00118
1.00145
1.0022
1.00263
1.00462
1.00712
1.0091
1.013
1.01953
1.0231
1.03003
1.04049
1.05313
1.07084
1.08752
1.09763
1.07564
1.0213
0.899192
0.756411
0.964972
1.22305
1.17589
1.15825
1.15894
1.11327
0.978165
0.995368
1.06099
1.07292
1.08484
1.09259
1.09571
1.10637
1.10448
1.10671
1.10455
1.10781
1.10085
1.1001
1.09577
1.08844
1.085
1.07553
1.07022
1.06376
1.05873
1.05367
1.04744
1.0415
1.04227
1.03922
1.03817
1.03738
1.04097
1.05065
1.04592
1.04573
1.04068
1.0338
1.02586
1.02581
1.02941
1.03231
1.04928
1.05448
1.05457
1.05498
1.04439
1.03367
1.03753
1.05112
1.06528
1.07187
1.05062
1.04047
1.04347
1.07506
1.07499
1.05262
1.04804
1.05721
1.07371
1.04811
1.03785
1.06159
1.05378
1.03104
1.04027
1.04012
1.03
1.02429
1.02365
1.02118
1.01282
1.01123
1.00812
1.00098
0.994694
0.98679
0.981764
0.979729
0.973041
0.964685
0.957906
0.950229
0.942932
0.936267
0.927437
0.918979
0.909604
0.899252
0.884935
0.874051
0.862845
0.855969
0.848598
0.846648
0.843166
0.846315
0.851634
0.850711
0.861569
0.862871
0.870015
0.878541
0.886252
0.895312
0.902301
0.909422
0.916504
0.925518
0.932256
0.939587
0.945468
0.951608
0.956966
0.964094
0.969974
0.974987
0.979984
0.985377
0.989347
0.995191
1.00111
1.00676
1.0121
1.01799
1.02367
1.03066
1.03631
1.04342
1.0504
1.05836
1.06648
1.07372
1.08021
1.0887
1.097
1.1066
1.11681
1.12852
1.13948
1.15075
1.16255
1.17785
1.19358
1.21062
1.22636
1.24607
1.26779
1.29154
1.31954
1.35119
1.37868
1.40499
1.43193
1.41711
1.35878
1.25106
1.12617
0.96978
0.882728
0.844747
0.827205
0.751809
0.698878
0.669606
0.64652
0.61564
0.609125
0.607645
0.604463
0.604495
0.604671
0.609276
0.613464
0.615295
0.620057
0.623503
0.629149
0.633375
0.639874
0.643602
0.647194
0.648384
0.648386
0.650428
0.651553
0.651284
0.651818
0.65131
0.650212
0.645736
0.642207
0.637272
0.632938
0.631754
0.631945
0.632793
0.633656
0.633953
0.634589
0.635166
0.635847
0.633167
0.625586
0.623946
0.619685
0.620606
0.622959
0.626084
0.632294
0.64488
0.682597
0.739312
0.772838
0.768919
0.758694
0.760607
0.75978
0.763082
0.761645
0.767688
0.771649
0.773171
0.785686
0.794467
0.804519
0.815472
0.820694
0.824031
0.834533
0.84138
0.840915
0.854122
0.874004
0.854293
0.870474
0.904619
0.881314
0.87577
0.924053
0.91869
0.886917
0.910527
0.940719
0.904641
0.933885
0.951406
0.92747
0.922787
0.954233
0.934902
0.933678
0.926951
0.955543
0.965413
0.933809
0.912214
0.92593
0.950202
0.98042
1.00476
1.01078
1.00824
0.998172
0.978186
0.958308
0.928529
0.908777
0.90362
0.889047
0.873846
0.854744
0.823285
0.788418
0.758657
0.7364
0.723325
0.711768
0.703373
0.692964
0.683031
0.671144
0.658273
0.647541
0.63958
0.632586
0.629124
0.625871
0.620229
0.622148
0.623694
0.63324
0.641243
0.653568
0.66467
0.680106
0.696242
0.713737
0.724819
0.744054
0.762672
0.773949
0.796326
0.790923
0.811964
0.77384
0.79954
0.703757
0.804638
1.06114
1.16362
1.15978
1.1606
1.2119
0.928986
0.775888
0.904192
1.02231
1.07739
1.0984
1.08766
1.07211
1.05415
1.04243
1.03101
1.02335
1.01949
1.01302
1.00913
1.00702
1.00397
1.00255
1.00355
1.00084
1.00108
1.00029
1.0007
1.00041
1.00005
1.00009
1.00013
1.00029
1.0004
1.00072
1.00029
1.00104
1.00087
1.00358
1.00238
1.00448
1.0071
1.00902
1.01291
1.01979
1.02279
1.02872
1.03839
1.0522
1.07163
1.08759
1.09586
1.07325
1.01804
0.893147
0.757883
0.986395
1.22199
1.17603
1.15793
1.14717
1.10431
1.07245
1.08984
1.08609
1.08883
1.09356
1.09653
1.09721
1.10338
1.10598
1.10789
1.10457
1.10725
1.10131
1.10021
1.0935
1.08683
1.08298
1.07438
1.06732
1.06178
1.057
1.05271
1.0481
1.04326
1.0408
1.04082
1.03964
1.03654
1.0423
1.05057
1.04604
1.04377
1.04217
1.03357
1.02722
1.02443
1.02802
1.03296
1.04816
1.0551
1.05371
1.05447
1.04541
1.03477
1.03726
1.04983
1.06635
1.07434
1.04954
1.03997
1.04271
1.07385
1.0738
1.05243
1.04682
1.05219
1.07415
1.04761
1.03954
1.05796
1.051
1.03411
1.0398
1.04005
1.03063
1.02334
1.02399
1.02123
1.01258
1.01116
1.0083
1.00085
0.994801
0.986951
0.981712
0.979826
0.972913
0.964851
0.957976
0.950427
0.94306
0.936452
0.927678
0.9193
0.909958
0.899659
0.885409
0.874617
0.863458
0.856628
0.849364
0.847482
0.844107
0.847107
0.852315
0.851532
0.862213
0.863685
0.870753
0.879113
0.886977
0.895875
0.902741
0.910053
0.917309
0.926001
0.932672
0.940151
0.945954
0.952051
0.957766
0.964681
0.970394
0.975662
0.980633
0.986064
0.990371
0.996191
1.00194
1.00782
1.01304
1.01907
1.02491
1.03167
1.03771
1.04475
1.05185
1.05999
1.06782
1.07571
1.08235
1.09123
1.09989
1.10944
1.11996
1.13173
1.14308
1.1552
1.16773
1.18325
1.19893
1.21708
1.23408
1.25428
1.27473
1.2994
1.32263
1.34749
1.3725
1.38975
1.41323
1.40061
1.35474
1.28489
1.18958
1.07464
0.969311
0.910021
0.870393
0.802522
0.746969
0.706572
0.676702
0.639867
0.628995
0.623078
0.615493
0.614416
0.613817
0.616001
0.619026
0.620284
0.624151
0.627497
0.63185
0.636211
0.642378
0.64591
0.649326
0.650484
0.650437
0.652227
0.653151
0.652796
0.653391
0.652791
0.650399
0.64675
0.644084
0.638799
0.633962
0.632421
0.632688
0.633424
0.633976
0.634495
0.634873
0.635686
0.636157
0.633894
0.626319
0.624711
0.620187
0.621084
0.623242
0.626551
0.632562
0.644957
0.682178
0.741177
0.773274
0.76889
0.758862
0.760828
0.760038
0.763394
0.761823
0.7678
0.771981
0.773379
0.785845
0.794701
0.804673
0.81586
0.820639
0.82422
0.83478
0.841528
0.841468
0.855033
0.870618
0.858019
0.870037
0.902821
0.87967
0.877309
0.928418
0.92367
0.88678
0.91727
0.938963
0.904998
0.929381
0.950751
0.929078
0.920786
0.95446
0.93517
0.933811
0.927496
0.955706
0.965461
0.939243
0.915996
0.927387
0.949268
0.979258
1.00141
1.01002
1.00691
0.997143
0.977971
0.957545
0.931991
0.908814
0.906242
0.888822
0.874184
0.856213
0.822113
0.787176
0.758508
0.736458
0.723083
0.711835
0.702611
0.693227
0.683903
0.671407
0.658946
0.648193
0.639297
0.632102
0.629468
0.625064
0.619832
0.62363
0.623367
0.631819
0.641705
0.653633
0.665622
0.680633
0.698261
0.715051
0.72605
0.744219
0.764643
0.770208
0.791936
0.792724
0.813207
0.797762
0.822688
0.849518
0.964193
1.04284
1.11668
1.13221
1.14282
1.17598
0.909093
0.769237
0.89653
1.02228
1.07957
1.10009
1.08755
1.06969
1.05498
1.04437
1.03197
1.02362
1.01922
1.01312
1.00922
1.00706
1.00491
1.0026
1.00222
1.00139
1.00113
1.0009
1.00046
1.00028
1.00011
1.00013
1.00014
1.00023
1.00026
1.0003
1.0009
1.00124
1.00142
1.0022
1.0027
1.00441
1.00722
1.00897
1.01284
1.02004
1.02258
1.02773
1.03721
1.05207
1.07123
1.08872
1.09431
1.07034
1.01287
0.891513
0.765422
1.02864
1.22233
1.17997
1.16896
1.15841
1.1141
1.09639
1.07527
1.08915
1.0873
1.09602
1.09614
1.09646
1.10435
1.1103
1.10777
1.10811
1.10812
1.10166
1.0997
1.09505
1.08627
1.08222
1.07263
1.06728
1.06156
1.05751
1.05193
1.04519
1.04083
1.04119
1.04025
1.03795
1.03671
1.04177
1.05005
1.04618
1.04544
1.042
1.03614
1.02465
1.0255
1.02953
1.0336
1.0468
1.05463
1.0557
1.0571
1.04673
1.0335
1.03597
1.04989
1.0671
1.07331
1.04982
1.03809
1.04304
1.07318
1.07458
1.04853
1.04668
1.05362
1.07512
1.04781
1.03656
1.06228
1.05177
1.03234
1.03908
1.04099
1.02992
1.02336
1.02424
1.02109
1.01257
1.01107
1.00828
1.00091
0.99482
0.986878
0.981703
0.979925
0.972881
0.964799
0.958124
0.950468
0.94315
0.936605
0.927813
0.91953
0.910217
0.899839
0.885758
0.874894
0.863853
0.856956
0.849821
0.847899
0.844613
0.847821
0.852921
0.852112
0.86263
0.864145
0.871187
0.879537
0.887189
0.896242
0.903228
0.910327
0.917447
0.926341
0.932969
0.940341
0.946296
0.952442
0.957865
0.965047
0.970783
0.975966
0.981114
0.9864
0.990633
0.996507
1.0023
1.00827
1.01362
1.01964
1.02551
1.03248
1.0383
1.0456
1.05256
1.06068
1.0689
1.07622
1.08366
1.0921
1.10072
1.1109
1.12105
1.13296
1.14389
1.15614
1.16889
1.18395
1.19997
1.21703
1.23392
1.25344
1.27556
1.29944
1.32564
1.35359
1.37928
1.39868
1.41696
1.40301
1.35886
1.28358
1.19723
1.07527
0.980443
0.916214
0.878311
0.807892
0.755276
0.716057
0.687429
0.649065
0.635554
0.628885
0.622328
0.620563
0.617742
0.618299
0.62159
0.62281
0.626877
0.62894
0.634428
0.638397
0.643946
0.647249
0.650856
0.651817
0.651582
0.653567
0.653902
0.654091
0.653682
0.652831
0.6527
0.647657
0.644866
0.639278
0.634407
0.632866
0.632815
0.633653
0.634439
0.634836
0.635413
0.635899
0.636586
0.634127
0.626674
0.624901
0.6207
0.621474
0.623424
0.626663
0.632837
0.644788
0.681435
0.741377
0.773702
0.76951
0.758812
0.761027
0.760203
0.763478
0.762028
0.767932
0.772068
0.773403
0.78583
0.794851
0.804869
0.815707
0.821184
0.82393
0.83518
0.84134
0.839909
0.855047
0.873673
0.852951
0.871995
0.903182
0.881117
0.878084
0.929336
0.921768
0.887584
0.915004
0.939821
0.903612
0.93142
0.951693
0.929923
0.92403
0.954869
0.937179
0.933425
0.928555
0.955848
0.966161
0.93641
0.916086
0.922347
0.948307
0.983125
1.00348
1.01244
1.0074
0.996494
0.979025
0.958556
0.930121
0.905414
0.903062
0.893381
0.872226
0.847329
0.817762
0.783751
0.756695
0.736286
0.722144
0.710981
0.700872
0.69031
0.680358
0.669719
0.658688
0.648044
0.63997
0.633572
0.629202
0.624262
0.621207
0.620491
0.623935
0.630242
0.636467
0.648917
0.660404
0.678804
0.692869
0.713066
0.721841
0.743261
0.759851
0.773532
0.792629
0.795589
0.827585
0.82314
0.876928
0.891231
0.981756
1.02951
1.09317
1.09671
1.11546
1.14039
0.893294
0.775555
0.874956
1.02131
1.08133
1.10166
1.088
1.06931
1.05711
1.04663
1.03296
1.02399
1.01924
1.01326
1.00927
1.007
1.00393
1.00253
1.00355
1.00081
1.00107
1.00033
1.00062
1.00042
1.00007
1.00017
1.00012
1.00007
1.0004
1.00066
1.00027
1.00106
1.00086
1.00358
1.0024
1.00451
1.00717
1.00889
1.01276
1.0204
1.02249
1.02694
1.03623
1.05307
1.07089
1.08762
1.093
1.06863
1.01016
0.895657
0.787468
1.0287
1.20632
1.17952
1.16357
1.16035
1.14151
1.10737
1.11607
1.0997
1.10405
1.09846
1.10056
1.1062
1.10493
1.10457
1.11044
1.10349
1.10981
1.10107
1.09891
1.09418
1.0873
1.08175
1.07363
1.0679
1.06068
1.05717
1.05306
1.04582
1.04147
1.0396
1.03815
1.03724
1.03474
1.04133
1.05096
1.0463
1.0451
1.04375
1.03618
1.02418
1.02497
1.02724
1.03026
1.04773
1.05695
1.05428
1.05682
1.04709
1.03373
1.0354
1.04979
1.06489
1.0739
1.05082
1.03636
1.04143
1.07334
1.07369
1.05106
1.04399
1.05363
1.07554
1.05056
1.03841
1.0614
1.05036
1.03184
1.03933
1.04156
1.02897
1.02411
1.02341
1.02154
1.01237
1.01082
1.00845
1.00078
0.994753
0.987047
0.98199
0.979596
0.973079
0.964865
0.958182
0.950658
0.943344
0.936679
0.928127
0.919797
0.910542
0.900309
0.886107
0.875493
0.864385
0.857596
0.850489
0.848724
0.845472
0.848442
0.853387
0.852754
0.863167
0.864897
0.871889
0.880019
0.887982
0.896778
0.90355
0.910869
0.918395
0.926713
0.933301
0.940874
0.946675
0.952686
0.95879
0.965624
0.97115
0.976626
0.981637
0.98689
0.991591
0.997426
1.00297
1.00925
1.01429
1.02038
1.02643
1.0329
1.03943
1.04645
1.05357
1.06208
1.06969
1.078
1.08513
1.09405
1.10316
1.11281
1.12312
1.13525
1.14669
1.15954
1.17241
1.1875
1.20341
1.22151
1.23853
1.25902
1.27928
1.30305
1.32724
1.35236
1.37239
1.39082
1.41027
1.39499
1.36895
1.29397
1.21925
1.12066
1.02671
0.958568
0.90812
0.842948
0.788376
0.742492
0.708236
0.667267
0.650631
0.640252
0.630439
0.627216
0.624454
0.623812
0.626363
0.626932
0.629923
0.631994
0.637236
0.64033
0.646047
0.649168
0.652595
0.653496
0.653621
0.655098
0.655276
0.655776
0.655063
0.654143
0.652673
0.648991
0.646176
0.641218
0.635182
0.633187
0.633648
0.634485
0.634906
0.635459
0.635727
0.636481
0.636989
0.635065
0.627364
0.62575
0.621
0.621689
0.623863
0.627069
0.632759
0.644886
0.683933
0.740008
0.774454
0.769659
0.759184
0.761118
0.760421
0.763854
0.762051
0.767969
0.772236
0.773655
0.786271
0.79505
0.804839
0.816442
0.820711
0.824645
0.834931
0.841627
0.842327
0.853375
0.873668
0.855116
0.87022
0.906967
0.876657
0.880117
0.923136
0.919994
0.886424
0.915228
0.942292
0.898671
0.931399
0.952386
0.929862
0.92316
0.956392
0.938033
0.933574
0.92527
0.953742
0.966724
0.936002
0.915944
0.924124
0.946324
0.979332
1.00022
1.0126
1.00718
0.995643
0.977791
0.960403
0.932214
0.909154
0.905812
0.893309
0.86821
0.848167
0.813535
0.782133
0.755978
0.735935
0.723072
0.711234
0.699758
0.688958
0.678643
0.667783
0.657269
0.647783
0.640197
0.634086
0.629839
0.625772
0.621488
0.621701
0.624451
0.628284
0.637804
0.648984
0.662585
0.678616
0.695341
0.710281
0.72174
0.743333
0.757752
0.773055
0.788944
0.800762
0.826187
0.83554
0.878875
0.91035
0.9836
1.01969
1.0688
1.06795
1.08974
1.11524
0.858808
0.755046
0.851079
1.02096
1.08322
1.10289
1.08901
1.06822
1.05843
1.04783
1.03349
1.02434
1.01901
1.01336
1.00924
1.00702
1.00488
1.00252
1.00221
1.00157
1.00118
1.00085
1.00052
1.00028
1.00008
1.0001
1.00015
1.00016
1.00025
1.0004
1.00092
1.00127
1.00145
1.00222
1.00276
1.00439
1.00731
1.0088
1.01268
1.02062
1.02241
1.02633
1.03554
1.05417
1.07102
1.08751
1.09165
1.06716
1.00891
0.900663
0.795487
1.06643
1.19608
1.17795
1.16069
1.15729
1.13131
1.12038
1.10316
1.1046
1.09751
1.10171
1.1008
1.10446
1.10668
1.10918
1.10905
1.11028
1.1062
1.10159
1.09905
1.09425
1.08573
1.08113
1.07254
1.06531
1.05959
1.05608
1.05133
1.04434
1.03954
1.03914
1.03959
1.03804
1.03499
1.04204
1.05108
1.04567
1.04554
1.04368
1.03365
1.02376
1.0226
1.02663
1.03038
1.04912
1.05548
1.05438
1.05538
1.04595
1.03118
1.03508
1.04985
1.06849
1.07555
1.04879
1.03643
1.03993
1.07449
1.0749
1.05302
1.04574
1.05391
1.07539
1.04686
1.03646
1.06002
1.05146
1.03202
1.03921
1.04094
1.02974
1.02311
1.02395
1.02147
1.01228
1.0113
1.0082
1.00049
0.994852
0.987324
0.981771
0.979778
0.972912
0.964932
0.958305
0.950742
0.943493
0.937007
0.928291
0.920184
0.910986
0.90058
0.886667
0.875912
0.864997
0.85809
0.851162
0.849263
0.846194
0.849425
0.854252
0.853559
0.863882
0.865509
0.872347
0.880547
0.888358
0.897215
0.904046
0.911374
0.918678
0.927191
0.933692
0.941281
0.947201
0.953276
0.958972
0.966044
0.9715
0.97697
0.982178
0.987421
0.992041
0.997974
1.00348
1.00979
1.01491
1.02113
1.02712
1.03389
1.04015
1.04735
1.05444
1.06276
1.07083
1.07853
1.08629
1.09489
1.10371
1.114
1.12411
1.13603
1.14718
1.15984
1.1729
1.18796
1.20383
1.22102
1.2377
1.25757
1.27855
1.30168
1.32523
1.3497
1.37192
1.38781
1.40152
1.3841
1.35258
1.2887
1.21772
1.11704
1.03199
0.960155
0.913715
0.846648
0.793904
0.750612
0.716981
0.67535
0.657806
0.646028
0.637489
0.634211
0.62766
0.628135
0.629949
0.630363
0.633028
0.634876
0.639193
0.642518
0.648063
0.65094
0.654008
0.654553
0.65567
0.656764
0.656801
0.656462
0.655916
0.65584
0.654258
0.649562
0.647426
0.641668
0.636287
0.634217
0.634237
0.634574
0.635276
0.635979
0.636203
0.636829
0.637356
0.63549
0.628225
0.62611
0.62191
0.622382
0.624211
0.627273
0.633262
0.644638
0.68269
0.740925
0.775864
0.770799
0.759077
0.76133
0.76055
0.763893
0.762591
0.768076
0.772818
0.773879
0.785875
0.795352
0.805185
0.816303
0.821544
0.823836
0.835808
0.841479
0.839803
0.855854
0.87246
0.853528
0.871518
0.904075
0.878785
0.8759
0.92443
0.923209
0.881689
0.918208
0.942273
0.896169
0.931975
0.953514
0.929678
0.924231
0.957482
0.93834
0.931726
0.923827
0.954574
0.967916
0.937573
0.912328
0.917989
0.94442
0.981817
1.00201
1.01368
1.00881
0.994573
0.979925
0.962411
0.932299
0.903523
0.899653
0.886409
0.865211
0.838006
0.807629
0.778118
0.7533
0.735155
0.72182
0.708905
0.697779
0.686718
0.675147
0.664741
0.655666
0.647757
0.641384
0.635986
0.631315
0.626211
0.62322
0.618067
0.619587
0.626396
0.630713
0.646966
0.657015
0.676794
0.687484
0.712528
0.717448
0.739913
0.750911
0.772151
0.787041
0.797414
0.835489
0.834794
0.887522
0.903381
0.968371
0.990994
1.03891
1.03479
1.05925
1.07829
0.835125
0.773233
0.863743
1.02177
1.08589
1.10447
1.08957
1.06784
1.05947
1.049
1.03393
1.02471
1.0194
1.01347
1.00938
1.00698
1.00393
1.00259
1.00357
1.001
1.00105
1.0003
1.00058
1.0004
1.00019
1.00011
1.00009
1.00012
1.00039
1.0007
1.00021
1.00111
1.00085
1.00359
1.00241
1.00456
1.00709
1.00867
1.01267
1.02115
1.02247
1.02581
1.03476
1.05657
1.07029
1.08712
1.09051
1.0658
1.00903
0.921663
0.852153
1.07934
1.17805
1.16989
1.15226
1.15312
1.13849
1.12519
1.11785
1.11011
1.10659
1.1041
1.10786
1.10805
1.11135
1.10778
1.10979
1.10666
1.10658
1.10295
1.09788
1.09336
1.08656
1.07952
1.07074
1.0649
1.05942
1.0557
1.05109
1.04435
1.03835
1.04079
1.0378
1.03576
1.03376
1.04034
1.05144
1.04612
1.04468
1.04305
1.03393
1.02306
1.02256
1.02832
1.03183
1.04864
1.05759
1.05471
1.05597
1.0453
1.02927
1.03475
1.04895
1.06677
1.07444
1.05033
1.03517
1.04104
1.07518
1.07608
1.05299
1.04691
1.05485
1.07499
1.04765
1.03658
1.06088
1.05312
1.03061
1.04017
1.0386
1.03139
1.02309
1.02359
1.02083
1.01272
1.01107
1.00799
1.00074
0.994667
0.987563
0.982053
0.979644
0.972919
0.965195
0.958356
0.951087
0.943773
0.937171
0.928745
0.92063
0.911443
0.901279
0.88713
0.876713
0.865704
0.858923
0.851978
0.850301
0.847249
0.850205
0.854892
0.85442
0.864427
0.866188
0.873296
0.881256
0.889124
0.897747
0.90474
0.911968
0.919405
0.927571
0.934324
0.941683
0.94749
0.953753
0.959739
0.966448
0.972165
0.977581
0.982651
0.988126
0.992789
0.99873
1.00436
1.0105
1.01569
1.02175
1.02784
1.03454
1.04129
1.04843
1.05558
1.06402
1.07167
1.07991
1.08757
1.09668
1.10572
1.11605
1.12598
1.13826
1.14996
1.16293
1.17607
1.19142
1.20714
1.22476
1.24168
1.2616
1.28104
1.30352
1.32491
1.34717
1.36415
1.37884
1.39339
1.37778
1.35822
1.29338
1.2335
1.14953
1.06579
0.996681
0.940884
0.878183
0.824015
0.775482
0.738463
0.69515
0.673666
0.659246
0.647343
0.640336
0.634506
0.631562
0.632692
0.634675
0.636006
0.63794
0.641825
0.645127
0.650024
0.653118
0.655647
0.656362
0.65739
0.657949
0.658303
0.657987
0.657489
0.656597
0.654607
0.651193
0.648004
0.643397
0.637162
0.635097
0.63528
0.635528
0.636255
0.63678
0.637119
0.637573
0.638212
0.636315
0.628649
0.627181
0.622447
0.622844
0.624641
0.62792
0.633189
0.644706
0.68215
0.742857
0.776886
0.771129
0.759493
0.761467
0.760952
0.764551
0.762531
0.76838
0.772955
0.773958
0.786821
0.795541
0.805535
0.816752
0.821492
0.825231
0.835099
0.842092
0.841808
0.85364
0.873967
0.853788
0.870105
0.903631
0.88135
0.87936
0.923203
0.922914
0.884374
0.914887
0.942254
0.904395
0.930188
0.955139
0.926036
0.920577
0.956261
0.939199
0.930288
0.925249
0.955724
0.969708
0.934061
0.906535
0.918674
0.94455
0.977228
1.0005
1.01434
1.00709
0.996228
0.978589
0.961251
0.929107
0.904004
0.902414
0.880506
0.860407
0.834176
0.803353
0.774856
0.750354
0.733208
0.721664
0.708796
0.694869
0.682275
0.670559
0.660824
0.65408
0.648443
0.642914
0.637991
0.633818
0.626967
0.622261
0.61836
0.619907
0.623258
0.633437
0.644801
0.658697
0.676161
0.689019
0.706802
0.718535
0.744471
0.750118
0.774023
0.784889
0.805107
0.828541
0.845197
0.885265
0.903971
0.956199
0.983583
1.01706
1.01452
1.03816
1.04262
0.816882
0.766737
0.867171
1.0245
1.08821
1.10596
1.09019
1.06785
1.06047
1.05001
1.03417
1.02505
1.01923
1.01357
1.00927
1.00701
1.00489
1.00234
1.00224
1.00129
1.00121
1.00083
1.0005
1.0003
1.00002
1.00011
1.00014
1.00024
1.00026
1.00035
1.0009
1.00108
1.00148
1.00224
1.00276
1.00434
1.0073
1.00851
1.01269
1.02182
1.02232
1.02529
1.03446
1.05897
1.06962
1.08622
1.08945
1.06451
1.00969
0.932697
0.873358
1.11179
1.15197
1.17339
1.15181
1.14445
1.13326
1.12175
1.11185
1.11145
1.1025
1.11061
1.10037
1.1133
1.10952
1.1135
1.10637
1.10983
1.11005
1.10339
1.10022
1.0922
1.08571
1.07933
1.07063
1.06478
1.05887
1.05446
1.04897
1.04336
1.03712
1.03847
1.03653
1.0347
1.03388
1.03933
1.0502
1.04468
1.04278
1.04118
1.0309
1.0217
1.02266
1.02855
1.0324
1.05031
1.05753
1.05399
1.05608
1.04495
1.03189
1.03395
1.04839
1.0664
1.07391
1.05022
1.03668
1.03848
1.07678
1.07727
1.04965
1.04417
1.05428
1.07819
1.04645
1.03805
1.06144
1.05366
1.02861
1.0406
1.04094
1.0285
1.02357
1.0237
1.02072
1.01235
1.01103
1.00804
1.00073
0.994763
0.987534
0.982139
0.979896
0.972903
0.965191
0.958721
0.951248
0.944
0.937596
0.929079
0.921128
0.91209
0.901597
0.887888
0.877305
0.866519
0.859484
0.85285
0.850919
0.847997
0.851296
0.855804
0.855244
0.865278
0.866935
0.87381
0.881872
0.889646
0.898228
0.905222
0.912585
0.919793
0.928137
0.934671
0.94217
0.948222
0.954438
0.960105
0.967084
0.97261
0.977973
0.983157
0.988556
0.99325
0.99927
1.00477
1.01115
1.01626
1.02273
1.02855
1.0353
1.04197
1.04904
1.05636
1.06471
1.07244
1.08078
1.0885
1.09758
1.10669
1.11671
1.12711
1.13882
1.15042
1.16327
1.17621
1.19135
1.20647
1.2236
1.24008
1.25979
1.27931
1.30104
1.32179
1.34327
1.36048
1.37318
1.38516
1.36508
1.34164
1.28579
1.22704
1.14332
1.06791
0.996114
0.945373
0.880321
0.827894
0.781623
0.744543
0.702472
0.679858
0.664676
0.653976
0.647967
0.638728
0.637163
0.637151
0.638551
0.639123
0.641159
0.643366
0.648174
0.651568
0.655414
0.657213
0.658225
0.658733
0.659855
0.659828
0.65895
0.657892
0.657835
0.657668
0.652081
0.649026
0.64468
0.638182
0.635234
0.635593
0.635979
0.636571
0.637146
0.637482
0.638089
0.638323
0.637136
0.62986
0.627716
0.623014
0.623399
0.625138
0.627933
0.633538
0.644283
0.680918
0.744414
0.778494
0.772428
0.759596
0.761983
0.761132
0.764776
0.76342
0.768539
0.773534
0.774191
0.786429
0.796688
0.805884
0.817167
0.822354
0.824767
0.836288
0.842106
0.841021
0.855879
0.872675
0.854334
0.870114
0.906957
0.876423
0.878037
0.927334
0.925628
0.876109
0.913863
0.942229
0.897461
0.934469
0.953774
0.929229
0.921959
0.957789
0.937623
0.92825
0.924418
0.955216
0.973059
0.933332
0.90563
0.911635
0.940454
0.976725
1.00113
1.01569
1.00999
0.996617
0.98277
0.962464
0.928929
0.900611
0.894951
0.877596
0.853346
0.826478
0.79722
0.770888
0.747816
0.731284
0.719297
0.707008
0.692488
0.67848
0.666475
0.656859
0.651478
0.648157
0.643937
0.638373
0.636088
0.627191
0.623492
0.615874
0.613062
0.622402
0.627069
0.645077
0.655222
0.673205
0.683911
0.704558
0.711967
0.736778
0.746553
0.762873
0.781725
0.796626
0.828396
0.833044
0.88014
0.883616
0.937288
0.946004
0.98492
0.984812
1.00922
1.00794
0.80964
0.774538
0.863262
1.02801
1.0905
1.10744
1.09065
1.06687
1.06143
1.0508
1.03422
1.02538
1.01946
1.01368
1.00942
1.00694
1.0039
1.00273
1.00357
1.00101
1.00107
1.00033
1.00061
1.00042
1.00026
1.00013
1.00013
1.00011
1.00035
1.00069
1.00023
1.00113
1.0007
1.0036
1.00244
1.00461
1.00699
1.00835
1.01271
1.02237
1.02216
1.0247
1.03684
1.06294
1.06897
1.0851
1.08854
1.06379
1.00939
0.939198
0.92084
1.10156
1.13709
1.155
1.14685
1.13814
1.12885
1.12099
1.11419
1.11069
1.10926
1.10699
1.11143
1.11161
1.10991
1.10925
1.11281
1.1072
1.10787
1.1024
1.09596
1.09198
1.08474
1.07868
1.07083
1.06385
1.05781
1.05259
1.04784
1.04247
1.03809
1.03664
1.03662
1.0362
1.03307
1.03999
1.04807
1.04408
1.04184
1.03955
1.0308
1.02102
1.023
1.02679
1.03308
1.04741
1.05486
1.0561
1.05696
1.04457
1.03208
1.03423
1.04919
1.07001
1.07484
1.0497
1.03772
1.04189
1.07508
1.07198
1.05045
1.04499
1.05279
1.07218
1.04867
1.03937
1.05568
1.05299
1.03101
1.03917
1.03969
1.02964
1.02349
1.02297
1.02098
1.01201
1.01084
1.00822
1.00042
0.99485
0.987796
0.982487
0.979595
0.973043
0.96545
0.958862
0.951686
0.9444
0.937796
0.929694
0.921556
0.912746
0.902175
0.888616
0.877861
0.867346
0.860156
0.85396
0.851642
0.849137
0.852032
0.856534
0.856307
0.865871
0.867483
0.874794
0.882574
0.890342
0.898702
0.906014
0.91321
0.920344
0.928523
0.935431
0.942621
0.948407
0.954999
0.960704
0.967225
0.973142
0.978597
0.983616
0.989517
0.993982
0.999966
1.00584
1.01167
1.01735
1.02343
1.02955
1.03653
1.04314
1.05042
1.05749
1.06585
1.07366
1.0818
1.08989
1.09924
1.10811
1.11905
1.1292
1.14093
1.15316
1.16574
1.17893
1.19458
1.20962
1.22644
1.24346
1.26225
1.28091
1.30169
1.32023
1.33988
1.35514
1.36576
1.3769
1.36142
1.34522
1.28979
1.23821
1.16738
1.09223
1.02646
0.969556
0.909205
0.855854
0.806123
0.767004
0.721428
0.696633
0.67967
0.663275
0.654078
0.647044
0.640925
0.640724
0.641303
0.643114
0.644001
0.646677
0.649703
0.654383
0.656903
0.659358
0.659936
0.66058
0.661298
0.661419
0.661017
0.659204
0.657973
0.657277
0.653197
0.650892
0.645525
0.639561
0.636987
0.63643
0.636784
0.637212
0.637871
0.637952
0.638612
0.639259
0.637764
0.630382
0.628795
0.624122
0.624146
0.625746
0.628389
0.633786
0.643922
0.681174
0.745479
0.778688
0.773866
0.760053
0.762086
0.7617
0.765481
0.763318
0.768915
0.773775
0.77468
0.787
0.796975
0.806355
0.817601
0.822878
0.825334
0.835893
0.842794
0.841647
0.85505
0.869872
0.856173
0.870753
0.904765
0.878099
0.87819
0.9289
0.922677
0.882983
0.914709
0.944289
0.902905
0.925174
0.955065
0.924658
0.920569
0.958801
0.937811
0.928333
0.923737
0.956724
0.977121
0.933062
0.899053
0.908819
0.937655
0.971581
1.00253
1.01469
1.01271
0.999485
0.983974
0.965894
0.930302
0.901309
0.894106
0.874891
0.846195
0.818974
0.790044
0.764391
0.743496
0.728803
0.715491
0.702926
0.688489
0.674527
0.663379
0.654952
0.65049
0.649395
0.645668
0.641025
0.637976
0.628654
0.625206
0.615389
0.614266
0.61737
0.62622
0.639974
0.650745
0.671696
0.683189
0.703824
0.710725
0.738237
0.744756
0.770255
0.777525
0.801943
0.820677
0.834777
0.870326
0.8801
0.914693
0.933866
0.959049
0.958419
0.981082
0.97193
0.807463
0.789947
0.874046
1.03123
1.09256
1.10893
1.09197
1.06751
1.06218
1.05148
1.03397
1.02566
1.01966
1.01383
1.0093
1.00697
1.00492
1.00231
1.00224
1.00128
1.00136
1.00082
1.00042
1.00028
1
1.0001
1.00016
1.00022
1.00024
1.00045
1.0009
1.00124
1.00147
1.00224
1.00282
1.00424
1.00728
1.00822
1.01279
1.02332
1.02233
1.02412
1.04273
1.06458
1.06823
1.08411
1.08781
1.06422
1.01112
0.950301
0.963457
1.09959
1.12577
1.14096
1.13756
1.13018
1.1227
1.117
1.11206
1.10975
1.10765
1.11011
1.11109
1.11065
1.11195
1.11266
1.10883
1.10932
1.10411
1.10189
1.09626
1.09088
1.08392
1.07752
1.06963
1.06235
1.05581
1.05047
1.04554
1.04017
1.03616
1.03517
1.03449
1.03549
1.03261
1.0388
1.04674
1.04279
1.04392
1.03791
1.03064
1.02287
1.02339
1.02696
1.03277
1.04752
1.05544
1.05503
1.05644
1.0443
1.0319
1.03594
1.0488
1.06691
1.07177
1.0488
1.0388
1.0405
1.07435
1.07398
1.05057
1.0466
1.05332
1.07485
1.04508
1.03707
1.06044
1.04994
1.03287
1.03829
1.0405
1.02869
1.02272
1.02349
1.02069
1.01178
1.01121
1.00785
1.00031
0.994927
0.988113
0.982413
0.979836
0.973132
0.965641
0.959075
0.951887
0.944821
0.938183
0.930125
0.922184
0.913271
0.902804
0.889345
0.878574
0.868159
0.860758
0.854955
0.852402
0.849891
0.853202
0.857512
0.857122
0.866659
0.868405
0.875546
0.883396
0.890823
0.899171
0.906685
0.913776
0.920652
0.929189
0.935886
0.942913
0.9492
0.95566
0.961038
0.967911
0.973901
0.978963
0.984227
0.989928
0.994489
1.00046
1.00628
1.01234
1.01772
1.02432
1.02997
1.03703
1.04375
1.05097
1.05841
1.06658
1.07416
1.08275
1.09042
1.09997
1.10918
1.11911
1.12997
1.14149
1.1532
1.16612
1.17888
1.19387
1.2086
1.2253
1.24136
1.25992
1.27838
1.29824
1.31645
1.33513
1.34965
1.35914
1.36806
1.34985
1.32783
1.27889
1.23002
1.15951
1.09181
1.02379
0.971341
0.910621
0.858134
0.811009
0.771604
0.728899
0.703206
0.683704
0.670727
0.661564
0.6506
0.647017
0.646756
0.645641
0.646728
0.647058
0.649561
0.651918
0.656654
0.659058
0.661303
0.661871
0.662305
0.662758
0.662895
0.661786
0.660957
0.660378
0.659563
0.655005
0.65276
0.645869
0.640063
0.637549
0.636916
0.637191
0.637705
0.638227
0.638433
0.639007
0.639659
0.638377
0.631237
0.629262
0.624353
0.624639
0.626207
0.628746
0.634111
0.643397
0.680786
0.746468
0.779928
0.774979
0.759949
0.762059
0.762534
0.765521
0.764309
0.769073
0.773785
0.775638
0.786995
0.797412
0.80711
0.817914
0.823882
0.825713
0.836181
0.843465
0.841051
0.85576
0.871648
0.852745
0.872901
0.902129
0.881344
0.873467
0.924544
0.919885
0.880984
0.916839
0.945468
0.898224
0.930579
0.954791
0.92615
0.921071
0.954835
0.942286
0.92472
0.922625
0.956506
0.981109
0.933268
0.895656
0.903266
0.935406
0.972366
1.00263
1.01659
1.01423
1.00423
0.988474
0.969082
0.934672
0.902911
0.88928
0.869431
0.839827
0.811228
0.782802
0.759194
0.739271
0.726631
0.714909
0.70219
0.685786
0.669906
0.656639
0.648682
0.646843
0.647124
0.64705
0.640386
0.639244
0.628867
0.625218
0.615422
0.611166
0.61549
0.62059
0.636013
0.646735
0.665347
0.677564
0.7006
0.705602
0.728176
0.7405
0.757345
0.767422
0.783141
0.809694
0.820672
0.854615
0.856789
0.896832
0.901814
0.929392
0.934274
0.955892
0.939922
0.814134
0.790297
0.89224
1.03903
1.09356
1.11005
1.09051
1.06769
1.06317
1.05216
1.03385
1.02583
1.01986
1.01402
1.0093
1.00694
1.00382
1.00259
1.00356
1.00104
1.00108
1.0004
1.00059
1.00047
1.00014
1.00013
1.00008
1.00019
1.00038
1.0007
1.00035
1.00111
1.00074
1.0036
1.00238
1.00462
1.00699
1.0081
1.01282
1.02376
1.02257
1.02394
1.04689
1.06602
1.06739
1.08345
1.08714
1.06582
1.02074
0.973254
1.00443
1.09505
1.11526
1.12643
1.12691
1.12301
1.11871
1.115
1.11196
1.11073
1.11253
1.10897
1.11281
1.10904
1.11268
1.10778
1.10922
1.10676
1.10403
1.10088
1.0954
1.08973
1.08295
1.07596
1.06818
1.06056
1.05382
1.0479
1.0427
1.03775
1.03436
1.03368
1.03183
1.03131
1.03209
1.03605
1.04336
1.04264
1.04198
1.03798
1.03105
1.02456
1.02419
1.03001
1.03458
1.04847
1.05369
1.05322
1.05243
1.04346
1.03549
1.03692
1.04885
1.064
1.06841
1.04911
1.03949
1.04119
1.07186
1.07215
1.05139
1.04821
1.05564
1.07189
1.04753
1.03875
1.06143
1.04961
1.02955
1.04005
1.03817
1.02896
1.02326
1.02294
1.02019
1.01201
1.01087
1.00755
1.00064
0.994826
0.988342
0.982857
0.979581
0.973156
0.965858
0.959206
0.952049
0.945108
0.938458
0.930529
0.922591
0.913797
0.903342
0.889917
0.879144
0.868917
0.861474
0.856003
0.853206
0.851065
0.853928
0.858236
0.858268
0.867375
0.869111
0.876479
0.883917
0.89171
0.899906
0.907197
0.914358
0.92153
0.929618
0.936255
0.943657
0.94957
0.956029
0.961882
0.968513
0.974064
0.979875
0.984895
0.990648
0.995358
1.00129
1.00704
1.01313
1.01896