/*--------------------------------*- C++ -*----------------------------------*\
| =========                 |                                                 |
| \\      /  F ield         | OpenFOAM: The Open Source CFD Toolbox           |
|  \\    /   O peration     | Version:  v2006                                 |
|   \\  /    A nd           | Website:  www.openfoam.com                      |
|    \\/     M anipulation  |                                                 |
\*---------------------------------------------------------------------------*/
FoamFile
{
    version     2.0;
    format      ascii;
    class       volScalarField;
    location    "25";
    object      rho;
}
// * * * * * * * * * * * * * * * * * * * * * * * * * * * * * * * * * * * * * //

dimensions      [1 -3 0 0 0 0 0];


internalField   nonuniform List<scalar> 
93840
(
1.00009
0.999984
1.00018
1.00023
1.00062
1.00085
1.0018
1.00206
1.0012
1.00324
1.00464
1.00617
1.00873
1.01479
1.01751
1.01966
1.02566
1.03918
1.05203
1.06174
1.07054
1.05362
1.00847
0.89954
0.749801
0.900472
1.11749
1.0818
1.06645
1.08286
1.05474
0.955185
0.958978
1.0116
1.01108
1.0296
1.02427
1.03516
1.03627
1.03764
1.03775
1.03658
1.03833
1.03394
1.03328
1.03088
1.02573
1.02389
1.0161
1.01157
1.0077
1.00376
1.00213
0.995942
0.991918
0.995149
0.990424
0.995631
0.990426
0.993883
1.0037
0.998297
0.996328
0.994847
0.990351
0.985044
0.983787
0.986556
0.988058
1.00229
1.0038
1.00387
1.00441
0.997672
0.989681
0.991688
1.00138
1.01172
1.01622
1.00093
0.992158
0.9938
1.01615
1.01625
0.999806
0.995604
1.0012
1.01285
0.993907
0.985968
1.00149
0.995606
0.978496
0.983865
0.982974
0.97471
0.969556
0.967916
0.96529
0.958352
0.955962
0.952984
0.946996
0.94186
0.935734
0.931816
0.929499
0.924316
0.917912
0.912659
0.906863
0.90129
0.896301
0.889703
0.883466
0.876649
0.869244
0.859282
0.851833
0.844378
0.840353
0.835731
0.835631
0.834184
0.837971
0.84291
0.843748
0.853077
0.855206
0.862155
0.869577
0.876576
0.884393
0.890669
0.89703
0.903566
0.911096
0.917235
0.923672
0.928903
0.934625
0.939459
0.945854
0.951098
0.95578
0.960453
0.965365
0.969354
0.974687
0.979917
0.985075
0.989784
0.99508
1.00001
1.006
1.01096
1.01705
1.02301
1.02961
1.03636
1.04239
1.04801
1.05496
1.06174
1.06948
1.07748
1.08668
1.09497
1.10381
1.11253
1.12398
1.13516
1.14749
1.1584
1.17221
1.18676
1.20303
1.22173
1.24302
1.26096
1.27934
1.29787
1.28507
1.25291
1.17099
1.09293
0.974334
0.910904
0.878147
0.862685
0.803691
0.759385
0.73395
0.712161
0.685322
0.676151
0.673137
0.667208
0.665299
0.662138
0.664379
0.664378
0.664998
0.665885
0.667584
0.669312
0.671946
0.674096
0.677182
0.677198
0.678226
0.67556
0.677361
0.675463
0.675717
0.67344
0.673451
0.669898
0.667109
0.661726
0.65821
0.652094
0.651417
0.648541
0.649551
0.647284
0.647901
0.645731
0.646336
0.644578
0.642632
0.634724
0.633325
0.627759
0.628143
0.627636
0.629539
0.632746
0.640801
0.667146
0.707237
0.732436
0.732442
0.726103
0.728429
0.728026
0.730533
0.730498
0.734729
0.73776
0.738726
0.7477
0.754461
0.76216
0.769875
0.774879
0.777891
0.785839
0.791221
0.79213
0.802503
0.817055
0.805051
0.818342
0.842941
0.828737
0.827518
0.862865
0.860449
0.841379
0.859063
0.878223
0.858802
0.890464
0.914933
0.903607
0.903021
0.926211
0.912758
0.911729
0.907011
0.927386
0.93509
0.913864
0.900517
0.910324
0.926911
0.947253
0.964562
0.967379
0.965672
0.959863
0.944414
0.929167
0.910552
0.901119
0.901429
0.894293
0.878873
0.842791
0.813918
0.787339
0.771398
0.752327
0.738689
0.732019
0.719669
0.714915
0.704578
0.699116
0.685894
0.683675
0.674543
0.674547
0.667925
0.670096
0.664304
0.669621
0.671895
0.67864
0.687917
0.693923
0.708787
0.715994
0.733972
0.742506
0.753001
0.765389
0.777054
0.785552
0.796147
0.791012
0.800149
0.764343
0.777433
0.692882
0.789226
1.00201
1.06646
1.06038
1.07303
1.11012
0.909835
0.759071
0.898606
1.00812
1.05466
1.07093
1.06174
1.05298
1.04006
1.02705
1.02032
1.01768
1.01478
1.00875
1.00616
1.00514
1.0025
1.00181
1.00197
1.00035
1.00063
1.00017
1.0005
1.00029
1.00002
1.00006
1.00008
1.00019
1.00028
1.00053
1.00017
1.00063
1.00024
1.00215
1.00179
1.003
1.00485
1.00612
1.00868
1.01496
1.01728
1.01875
1.0243
1.03859
1.05255
1.06187
1.0692
1.05186
1.00704
0.900636
0.76925
0.921973
1.11451
1.07626
1.06089
1.05848
1.02625
1.00722
1.02781
1.01481
1.02306
1.02397
1.02663
1.02563
1.03083
1.03101
1.03268
1.03005
1.03181
1.02766
1.02666
1.02152
1.0167
1.01357
1.00737
1.00227
0.999319
0.996855
0.993016
0.989691
0.987051
0.989399
0.985775
0.990113
0.982709
0.989333
0.997927
0.990353
0.9895
0.990745
0.982797
0.9778
0.976455
0.979569
0.982013
0.994878
0.997477
0.997029
0.99781
0.991351
0.983324
0.984858
0.993768
1.00603
1.01099
0.992611
0.984144
0.986537
1.00907
1.00828
0.991706
0.986964
0.99071
1.0057
0.985558
0.97947
0.991918
0.986269
0.973468
0.976888
0.976484
0.969251
0.963653
0.963536
0.961388
0.955046
0.953532
0.9515
0.946114
0.941861
0.936513
0.933006
0.931244
0.926817
0.92129
0.916695
0.911751
0.906895
0.902719
0.897001
0.891671
0.885825
0.879395
0.870399
0.863737
0.857105
0.853545
0.849499
0.84974
0.848599
0.852241
0.857203
0.858213
0.867138
0.869559
0.876139
0.88328
0.890192
0.897724
0.903773
0.910157
0.916618
0.923729
0.929805
0.936148
0.941335
0.946909
0.951887
0.958005
0.963027
0.967769
0.97234
0.97714
0.981249
0.986314
0.991238
0.99632
1.00069
1.00581
1.0105
1.01599
1.02082
1.02642
1.03199
1.03817
1.0442
1.05001
1.05507
1.0614
1.06758
1.07424
1.08145
1.08957
1.09709
1.10546
1.11357
1.12419
1.13431
1.14664
1.15754
1.17123
1.18452
1.20069
1.21561
1.23137
1.2475
1.25823
1.27648
1.26922
1.23715
1.19279
1.13381
1.04843
0.975036
0.932551
0.90261
0.853024
0.809383
0.779089
0.753898
0.725669
0.715075
0.710864
0.702448
0.70158
0.698139
0.700182
0.699248
0.70056
0.70039
0.702742
0.702529
0.705856
0.706354
0.709654
0.708256
0.709388
0.705157
0.707074
0.703492
0.704012
0.70034
0.700817
0.694677
0.69298
0.687015
0.683872
0.676091
0.676013
0.67182
0.673573
0.669613
0.671083
0.667331
0.668716
0.665464
0.664371
0.655162
0.654611
0.647597
0.648816
0.646844
0.649313
0.651288
0.659199
0.684218
0.723096
0.743464
0.741559
0.734959
0.736741
0.73626
0.737964
0.737632
0.741656
0.744442
0.745127
0.753215
0.759259
0.766536
0.773204
0.777049
0.780009
0.787128
0.791604
0.792427
0.801908
0.812678
0.804864
0.814193
0.836549
0.821776
0.821618
0.85787
0.85595
0.83349
0.856361
0.870987
0.851019
0.879252
0.909547
0.901367
0.899764
0.924247
0.910044
0.909698
0.905304
0.926286
0.933829
0.916498
0.901055
0.909611
0.924484
0.944518
0.959864
0.966134
0.963046
0.955787
0.941404
0.927871
0.915583
0.905257
0.908538
0.890045
0.863188
0.842077
0.825759
0.799883
0.782053
0.758915
0.753454
0.739321
0.736244
0.728918
0.723318
0.714902
0.706285
0.697919
0.69108
0.685692
0.682287
0.681349
0.675995
0.681764
0.678169
0.686408
0.691165
0.703009
0.711871
0.723013
0.737104
0.746727
0.759335
0.769652
0.788115
0.787678
0.805717
0.803383
0.816416
0.804426
0.819368
0.839026
0.93141
0.984118
1.03151
1.04226
1.05222
1.0864
0.896046
0.732077
0.884532
1.00594
1.0558
1.07204
1.06185
1.05136
1.04039
1.02821
1.0209
1.01789
1.01461
1.00881
1.00622
1.0045
1.00406
1.0015
1.00235
1.00122
1.00087
1.00066
1.00031
1.00017
1.00007
1.00009
1.0001
1.00016
1.00017
1.00022
1.00062
1.0009
1.00154
1.00209
1.00165
1.00283
1.00461
1.0061
1.00862
1.01512
1.01712
1.01809
1.02354
1.03863
1.05218
1.06278
1.0681
1.04972
1.00418
0.904427
0.785678
0.970459
1.11747
1.07649
1.06889
1.06433
1.02915
1.0231
1.00879
1.01688
1.01744
1.02381
1.02099
1.02489
1.02675
1.0328
1.03054
1.03188
1.03134
1.02696
1.02391
1.01942
1.01345
1.01128
1.00425
0.99862
0.9958
0.994883
0.987976
0.987546
0.981608
0.987134
0.982733
0.982597
0.982003
0.98503
0.995563
0.985812
0.988642
0.987252
0.98006
0.972845
0.974522
0.975428
0.976766
0.990184
0.994396
0.995351
0.996452
0.987982
0.97864
0.980629
0.990561
1.00365
1.00752
0.989179
0.979697
0.983444
1.00583
1.00547
0.985054
0.983211
0.98832
1.003
0.982257
0.974489
0.991697
0.984063
0.969694
0.974025
0.975187
0.967508
0.962799
0.963193
0.961359
0.955792
0.954437
0.95312
0.948586
0.944607
0.939957
0.937191
0.93564
0.931975
0.926995
0.923013
0.918709
0.914487
0.910958
0.905754
0.901121
0.895871
0.88987
0.881421
0.874953
0.868847
0.865186
0.861432
0.861657
0.860559
0.864214
0.869088
0.869867
0.878556
0.880866
0.88721
0.894169
0.900706
0.908234
0.914133
0.920275
0.926374
0.933508
0.939428
0.945465
0.950667
0.956043
0.960598
0.966715
0.971443
0.975881
0.980339
0.984683
0.988502
0.993198
0.997906
1.00273
1.00689
1.01176
1.01602
1.02138
1.02561
1.03107
1.0362
1.04203
1.0481
1.05314
1.05874
1.06449
1.07077
1.07768
1.08486
1.09299
1.1004
1.10898
1.11732
1.12787
1.13818
1.15035
1.16113
1.17492
1.18926
1.20559
1.22308
1.24194
1.25648
1.27198
1.28397
1.2749
1.24546
1.19603
1.13916
1.05507
0.987031
0.940036
0.911508
0.859557
0.817815
0.788322
0.764138
0.734657
0.722699
0.717984
0.711752
0.710869
0.707138
0.708675
0.709593
0.71284
0.713763
0.715884
0.718983
0.723558
0.72341
0.729116
0.728023
0.730978
0.725797
0.729702
0.724624
0.727028
0.721311
0.722865
0.717245
0.715551
0.708059
0.705884
0.696287
0.697776
0.691545
0.695091
0.689435
0.692465
0.686908
0.689746
0.684506
0.685135
0.673431
0.674845
0.665369
0.668984
0.663966
0.669098
0.667937
0.678656
0.699374
0.74042
0.758205
0.75583
0.748033
0.748696
0.748214
0.74809
0.74734
0.751191
0.753102
0.753969
0.760704
0.766023
0.77371
0.778477
0.781886
0.784729
0.791107
0.794212
0.794322
0.803684
0.815274
0.802208
0.815745
0.835795
0.821042
0.820247
0.855943
0.851149
0.830653
0.851159
0.867236
0.845606
0.875264
0.906275
0.899846
0.900486
0.923179
0.910095
0.908376
0.906159
0.925771
0.934406
0.914458
0.901678
0.905989
0.926062
0.95109
0.966162
0.972992
0.966051
0.95544
0.942297
0.929286
0.917923
0.906554
0.910005
0.887186
0.856702
0.845275
0.827049
0.804439
0.784381
0.768167
0.757856
0.746869
0.741191
0.733342
0.725599
0.717444
0.709018
0.70074
0.69465
0.689581
0.686558
0.683318
0.681462
0.680409
0.681372
0.685256
0.689509
0.70001
0.707547
0.721913
0.73115
0.747314
0.755536
0.771575
0.784183
0.792798
0.809375
0.805486
0.829776
0.827955
0.872365
0.876104
0.940353
0.976074
1.01454
1.01407
1.03202
1.05936
0.87102
0.725419
0.863756
1.00253
1.05636
1.07304
1.06204
1.05135
1.04196
1.02985
1.0216
1.01816
1.01464
1.0089
1.00624
1.00521
1.00226
1.00193
1.00189
1.00063
1.0006
1.00021
1.00045
1.00029
1.00003
1.00011
1.00007
1.00003
1.0003
1.00049
1.00015
1.00076
1.00026
1.00212
1.00148
1.00253
1.00532
1.00603
1.00857
1.01535
1.01705
1.01756
1.0229
1.03921
1.05191
1.06189
1.06717
1.04831
1.00262
0.910945
0.810223
0.978785
1.10554
1.07318
1.07435
1.06483
1.05258
1.03054
1.0383
1.02681
1.03105
1.03011
1.0278
1.03779
1.03391
1.03597
1.0405
1.03566
1.03526
1.03055
1.02446
1.02242
1.0168
1.0125
1.00478
0.999428
0.995387
0.994659
0.991354
0.986457
0.984261
0.984762
0.984037
0.980246
0.983935
0.981114
0.99435
0.984187
0.987227
0.990639
0.981313
0.974018
0.971292
0.972436
0.976599
0.989422
0.991351
0.990136
0.993917
0.984227
0.978877
0.980225
0.991076
0.998336
1.0024
0.990435
0.97998
0.98204
1.00181
1.00172
0.986807
0.982208
0.987133
1.0001
0.984262
0.975546
0.989625
0.983375
0.969625
0.974079
0.97632
0.968413
0.965176
0.964348
0.96417
0.958891
0.957527
0.957242
0.953292
0.949778
0.945563
0.943662
0.941364
0.939044
0.934404
0.930579
0.927201
0.923276
0.920072
0.915511
0.911104
0.906411
0.900733
0.892287
0.886216
0.880157
0.876433
0.872736
0.872994
0.871803
0.875026
0.879774
0.880321
0.888805
0.891045
0.897078
0.903606
0.91016
0.917222
0.922744
0.928767
0.93482
0.94134
0.946924
0.95283
0.95762
0.962536
0.967156
0.97263
0.97678
0.980931
0.984937
0.988593
0.992412
0.996436
1.00063
1.00532
1.00881
1.01368
1.01748
1.02249
1.02659
1.03163
1.03643
1.04208
1.04762
1.05271
1.05829
1.06376
1.07089
1.07697
1.08478
1.09291
1.10092
1.11009
1.11841
1.12936
1.13918
1.15208
1.16278
1.17641
1.19028
1.20472
1.22213
1.24017
1.25149
1.26268
1.27988
1.26945
1.25281
1.20155
1.15296
1.08551
1.01892
0.97113
0.934255
0.885784
0.845336
0.809084
0.782867
0.749762
0.736115
0.728386
0.719416
0.717769
0.714776
0.715324
0.716813
0.717729
0.719309
0.721339
0.724917
0.728018
0.732161
0.7352
0.737314
0.738174
0.735147
0.741697
0.735698
0.741184
0.734428
0.73859
0.730879
0.732533
0.723705
0.724513
0.712257
0.715914
0.708119
0.714481
0.70633
0.712239
0.703957
0.709947
0.701608
0.705864
0.690411
0.695539
0.681585
0.689515
0.679883
0.690473
0.682798
0.70029
0.716383
0.758993
0.775801
0.772741
0.765677
0.763979
0.764382
0.762219
0.760074
0.763984
0.764596
0.765776
0.771415
0.774785
0.783392
0.786572
0.787368
0.792707
0.79661
0.798402
0.801439
0.806358
0.817447
0.805582
0.81766
0.838229
0.818063
0.82074
0.851554
0.8488
0.828376
0.848631
0.865801
0.838332
0.869625
0.903995
0.898211
0.898129
0.922963
0.909825
0.908483
0.904112
0.925117
0.93604
0.914771
0.900864
0.908091
0.929125
0.956098
0.97333
0.98463
0.973522
0.956631
0.938729
0.933854
0.924943
0.912958
0.906639
0.878933
0.855577
0.851342
0.827467
0.806651
0.786727
0.771153
0.760471
0.749848
0.741682
0.732286
0.723138
0.713187
0.704283
0.696691
0.691278
0.686999
0.684083
0.679976
0.676099
0.676056
0.678745
0.680945
0.687378
0.695153
0.706572
0.71886
0.731018
0.743135
0.749919
0.766366
0.779032
0.790916
0.803447
0.812402
0.830194
0.833258
0.867784
0.888063
0.934183
0.953884
0.992636
0.994674
1.01882
1.03903
0.837124
0.702756
0.838337
0.999797
1.05703
1.07379
1.06298
1.05043
1.04289
1.03059
1.02194
1.01841
1.01449
1.00894
1.00625
1.00409
1.00384
1.00149
1.00239
1.00123
1.0009
1.00059
1.00037
1.00019
1.00004
1.00006
1.00011
1.00011
1.00016
1.00028
1.00066
1.00088
1.00196
1.0019
1.00166
1.00346
1.00494
1.00596
1.00851
1.0155
1.017
1.01715
1.02245
1.04004
1.05208
1.06184
1.06622
1.0476
1.00305
0.91887
0.826415
1.00254
1.10474
1.07987
1.07524
1.07523
1.05836
1.05415
1.03964
1.04476
1.03813
1.04064
1.04089
1.04466
1.04175
1.04487
1.04293
1.03992
1.03518
1.03
1.02548
1.02093
1.01349
1.00856
1.00185
0.996462
0.992277
0.990888
0.990382
0.987696
0.987685
0.989026
0.985947
0.98459
0.977795
0.984233
0.986353
0.988814
0.981793
0.992492
0.982271
0.979132
0.976946
0.97923
0.978955
0.991549
0.995385
0.992123
0.989462
0.987148
0.985872
0.986481
0.993015
1.00078
1.00874
0.995922
0.987914
0.985947
0.999248
1.00549
1.00028
0.987207
0.985071
1.00533
0.98592
0.975262
0.986732
0.986107
0.975206
0.972944
0.977499
0.976884
0.968307
0.966187
0.97239
0.965841
0.961063
0.967209
0.960172
0.955309
0.958904
0.95234
0.950468
0.951702
0.944882
0.94334
0.941369
0.935316
0.935606
0.930134
0.924662
0.923488
0.914269
0.907211
0.901728
0.89265
0.89128
0.885168
0.885337
0.884529
0.885673
0.891613
0.890074
0.89842
0.900289
0.904847
0.911506
0.917374
0.923627
0.92962
0.934289
0.940567
0.946383
0.951222
0.957216
0.960723
0.966152
0.969395
0.975192
0.979441
0.982784
0.988119
0.990148
0.995118
0.997804
1.00223
1.0067
1.00913
1.01524
1.01739
1.02435
1.02712
1.03344
1.03835
1.04367
1.05063
1.05417
1.06149
1.0654
1.07304
1.07887
1.08627
1.09441
1.10148
1.11087
1.11899
1.12956
1.14097
1.15108
1.1651
1.17491
1.19311
1.20479
1.22075
1.23746
1.25439
1.26348
1.27396
1.26184
1.24167
1.19841
1.15148
1.0818
1.02229
0.970367
0.936421
0.886581
0.846568
0.813104
0.786771
0.754066
0.739155
0.73105
0.722373
0.721481
0.714582
0.715877
0.716538
0.71771
0.719443
0.72138
0.724462
0.727842
0.731678
0.734516
0.736475
0.737421
0.737524
0.739575
0.738564
0.73916
0.737923
0.738571
0.735124
0.735113
0.729709
0.728188
0.720564
0.721592
0.717994
0.721504
0.719147
0.72113
0.719138
0.720562
0.719538
0.717875
0.71133
0.708371
0.705153
0.703443
0.705696
0.705255
0.711284
0.715746
0.738968
0.782086
0.803992
0.79887
0.795815
0.789642
0.792573
0.789018
0.786158
0.788724
0.789644
0.787749
0.79408
0.795964
0.804168
0.804625
0.799413
0.807629
0.809505
0.803411
0.810092
0.816605
0.817706
0.808672
0.822034
0.839754
0.819377
0.820846
0.849634
0.849084
0.823306
0.849306
0.862751
0.832034
0.86257
0.894505
0.890706
0.895119
0.921898
0.908769
0.906798
0.903703
0.927064
0.937987
0.916045
0.897368
0.906294
0.931681
0.965353
0.983724
0.995178
0.984308
0.959577
0.945066
0.943657
0.928611
0.906947
0.892743
0.868071
0.863775
0.845429
0.826311
0.806757
0.786972
0.771422
0.759577
0.748223
0.738753
0.728522
0.718279
0.710063
0.703761
0.697634
0.693109
0.688815
0.685052
0.679839
0.677928
0.671829
0.672726
0.679231
0.681447
0.692952
0.699857
0.712942
0.721119
0.740165
0.744387
0.763316
0.769261
0.783932
0.794316
0.801632
0.831932
0.829352
0.865174
0.877477
0.926127
0.930683
0.971587
0.97267
0.996484
1.01315
0.819946
0.711174
0.845142
0.998092
1.05832
1.07479
1.06339
1.05023
1.04347
1.03125
1.0222
1.01869
1.01478
1.00904
1.00633
1.00475
1.00242
1.0023
1.00188
1.00042
1.00058
1.0002
1.00043
1.00028
1.00012
1.00007
1.00005
1.00006
1.00028
1.00051
1.0001
1.00079
0.999809
1.0022
1.00145
1.00323
1.00495
1.00585
1.00851
1.01587
1.01704
1.01681
1.02201
1.04172
1.05149
1.06153
1.06543
1.04667
1.00359
0.936958
0.87871
1.01029
1.10611
1.09611
1.08135
1.08693
1.07541
1.06626
1.05932
1.05298
1.05147
1.04708
1.05103
1.04906
1.05159
1.04861
1.0479
1.04343
1.04168
1.03542
1.0294
1.02295
1.01664
1.01084
1.00479
1.00086
0.997574
0.996677
0.996306
0.99312
0.987073
0.988461
0.987193
0.985323
0.982987
0.984162
0.989075
0.985727
0.99014
0.986836
0.985098
0.970668
0.973145
0.978715
0.984041
0.993742
0.996117
0.991998
0.992395
0.984174
0.981197
0.989985
0.990943
0.999843
1.00193
0.998266
0.991352
0.991245
0.998109
1.0052
1.00431
1.00636
0.986434
0.991064
1.0106
0.994
0.978494
0.992812
0.993958
0.982763
0.975465
0.987395
0.991666
0.966607
0.97714
0.995187
0.966869
0.977366
0.987673
0.964768
0.972577
0.977833
0.962837
0.968553
0.968478
0.953525
0.957582
0.958964
0.940597
0.947899
0.941387
0.926793
0.932196
0.912903
0.908245
0.904648
0.891359
0.89532
0.887934
0.887493
0.892435
0.89081
0.896081
0.899677
0.90171
0.90943
0.91075
0.921294
0.924293
0.929935
0.937393
0.938666
0.949378
0.951098
0.957165
0.964173
0.963271
0.974479
0.97261
0.981313
0.983527
0.985231
0.994282
0.990707
1.00261
1.00002
1.0087
1.01104
1.01313
1.02238
1.0197
1.03276
1.0296
1.0414
1.04279
1.04979
1.05695
1.05825
1.07101
1.06939
1.08506
1.08382
1.09901
1.102
1.11329
1.12207
1.1298
1.14475
1.15065
1.16776
1.17617
1.19168
1.20756
1.22016
1.23407
1.24499
1.2561
1.26853
1.25827
1.24595
1.2009
1.16197
1.10386
1.04776
0.997479
0.957627
0.911944
0.871096
0.83479
0.805683
0.77176
0.755061
0.74232
0.734446
0.727068
0.7243
0.720102
0.721967
0.722849
0.724018
0.726359
0.728606
0.731831
0.735443
0.737994
0.739761
0.740753
0.740747
0.741997
0.741585
0.742051
0.741046
0.740757
0.738705
0.736309
0.7333
0.729748
0.724735
0.72294
0.723499
0.723354
0.724098
0.724145
0.724779
0.72487
0.725661
0.723728
0.717892
0.71617
0.71252
0.71243
0.714145
0.716275
0.720639
0.7274
0.75292
0.798395
0.816088
0.823734
0.823667
0.805776
0.821012
0.819724
0.796848
0.833135
0.805727
0.823205
0.836102
0.806318
0.849767
0.838362
0.819714
0.853663
0.83774
0.831782
0.849425
0.840123
0.825971
0.823246
0.847075
0.844664
0.822617
0.826762
0.855772
0.848227
0.820716
0.849744
0.864234
0.8378
0.857225
0.886838
0.879696
0.886792
0.91808
0.908365
0.904843
0.904221
0.928708
0.939623
0.91252
0.894008
0.906807
0.929976
0.962159
0.983294
0.994798
0.987646
0.968685
0.954714
0.950297
0.925811
0.901422
0.888326
0.871169
0.861854
0.844915
0.825145
0.805264
0.785337
0.769806
0.758721
0.746244
0.733194
0.721765
0.712113
0.704751
0.700488
0.696724
0.693548
0.689389
0.685289
0.678027
0.672397
0.668218
0.667869
0.66863
0.679626
0.686591
0.695575
0.712486
0.717942
0.733579
0.740936
0.75801
0.767425
0.782871
0.794183
0.808282
0.81951
0.837642
0.864868
0.871971
0.919316
0.931815
0.958832
0.959756
0.978702
0.987742
0.80687
0.719139
0.836172
0.997978
1.05942
1.07564
1.06372
1.05038
1.04412
1.03193
1.02232
1.01893
1.01467
1.0091
1.00628
1.00459
1.00323
1.00122
1.00237
1.00118
1.00088
1.00057
1.00035
1.00022
1
1.00008
1.0001
1.00017
1.00019
1.00024
1.00064
1.00068
1.00198
1.00177
1.00215
1.00342
1.005
1.00573
1.00852
1.01632
1.01694
1.01647
1.0218
1.04347
1.05111
1.06081
1.06463
1.04572
1.00376
0.945611
0.901426
1.07018
1.09214
1.11481
1.09278
1.09044
1.08201
1.07343
1.06676
1.06623
1.05865
1.06679
1.05589
1.06726
1.06073
1.06324
1.0563
1.05539
1.05242
1.04469
1.03844
1.02999
1.02288
1.01681
1.00964
1.00502
1.00077
0.997687
0.994918
0.991776
0.986821
0.987147
0.985704
0.983457
0.980927
0.982239
0.990985
0.993617
0.995636
0.989481
0.973357
0.962626
0.961578
0.973151
0.981457
0.994663
0.99651
0.991317
0.995295
0.992138
0.984216
0.985247
0.991054
0.999059
0.997744
0.991239
0.988783
0.983979
1.01076
1.00989
0.99844
0.983164
0.988447
1.01617
1.01006
0.979887
0.988797
1.01918
0.997641
0.9731
1.00322
1.00997
0.981323
0.990611
1.00801
0.989246
0.978984
1.00723
0.990129
0.975748
0.998186
0.976089
0.971765
0.991927
0.959259
0.972775
0.969486
0.949916
0.956639
0.9476
0.942286
0.935227
0.92842
0.917538
0.910443
0.902763
0.89705
0.892196
0.891323
0.888189
0.892381
0.893766
0.895201
0.900838
0.903743
0.907332
0.914717
0.919107
0.926853
0.930444
0.937524
0.940659
0.948742
0.951598
0.958826
0.96209
0.967818
0.971337
0.977136
0.980188
0.985061
0.986995
0.992891
0.993672
1.00055
1.00208
1.00871
1.01106
1.01673
1.02039
1.02554
1.02987
1.03548
1.03937
1.04648
1.04991
1.05753
1.06078
1.06882
1.0735
1.08174
1.088
1.09682
1.10444
1.11416
1.12194
1.13469
1.14163
1.15822
1.16311
1.18289
1.18829
1.20732
1.21926
1.23488
1.24495
1.25288
1.26301
1.24899
1.23518
1.19575
1.15637
1.09915
1.04674
0.994887
0.959566
0.911128
0.872375
0.83736
0.808575
0.77588
0.757095
0.745884
0.73698
0.731746
0.724986
0.722419
0.723575
0.723732
0.725192
0.726088
0.729022
0.731838
0.735258
0.737573
0.739654
0.739871
0.740867
0.741245
0.741982
0.740711
0.740476
0.739778
0.740102
0.735456
0.733459
0.729428
0.724501
0.72171
0.72237
0.722499
0.723084
0.723507
0.723931
0.72397
0.724711
0.723369
0.717855
0.715808
0.712217
0.712381
0.713825
0.71615
0.720989
0.728579
0.75622
0.80451
0.832422
0.825949
0.819385
0.814342
0.82346
0.825236
0.820788
0.824938
0.827941
0.822251
0.843027
0.833934
0.843809
0.879909
0.846375
0.853501
0.895441
0.829988
0.858973
0.894411
0.847822
0.838277
0.87964
0.865431
0.830776
0.86389
0.866919
0.846378
0.816857
0.847589
0.864616
0.829088
0.860274
0.881485
0.878296
0.884825
0.916887
0.905866
0.902093
0.903074
0.927946
0.941752
0.911827
0.894044
0.900401
0.924952
0.960836
0.983815
0.995649
0.991816
0.976476
0.965528
0.952444
0.918275
0.88929
0.880606
0.874515
0.856846
0.841077
0.822
0.802609
0.782951
0.767464
0.755185
0.742408
0.728392
0.716287
0.707434
0.700793
0.697167
0.694058
0.691309
0.686802
0.68475
0.675964
0.67176
0.665065
0.660082
0.66849
0.673844
0.688151
0.697386
0.703679
0.718286
0.727581
0.730774
0.760311
0.75077
0.785309
0.77617
0.805554
0.820768
0.824822
0.859499
0.86269
0.90169
0.909419
0.936127
0.936921
0.954874
0.959863
0.801974
0.735348
0.839635
0.999647
1.06044
1.07644
1.06392
1.0497
1.04465
1.03232
1.02231
1.01917
1.01484
1.00917
1.00638
1.00499
1.00198
1.00222
1.00156
1.00065
1.00068
1.00023
1.00044
1.00028
1.00017
1.00009
1.00009
1.00006
1.00022
1.00052
1.00009
1.00076
0.99986
1.00245
1.00156
1.00286
1.00468
1.0056
1.00855
1.0167
1.01683
1.01606
1.02358
1.04623
1.05057
1.05998
1.06393
1.04495
1.00332
0.949364
0.926319
1.07931
1.10046
1.10349
1.09833
1.09587
1.08781
1.0822
1.07675
1.07363
1.07241
1.07055
1.0733
1.07209
1.07029
1.06905
1.0702
1.06424
1.06209
1.05588
1.04783
1.04247
1.03472
1.02866
1.02102
1.01456
1.00884
1.00385
0.999875
0.995815
0.991197
0.988132
0.988325
0.98933
0.988492
0.993671
1.00495
1.00554
1.00122
0.99062
0.975551
0.963206
0.968643
0.976388
0.984082
0.992111
0.992439
0.993741
0.997198
0.983961
0.966284
0.971675
0.990832
1.00523
1.00786
0.992731
0.974147
0.976425
1.01042
1.00961
0.994752
0.98149
0.992419
1.01646
1.00424
0.978748
1.00144
1.03287
0.99191
0.990081
1.03072
1.00464
0.992196
1.00942
1.00882
0.993757
1.00574
1.01401
0.983242
0.999198
0.998358
0.97347
0.988009
0.980718
0.973268
0.970422
0.965525
0.958452
0.954311
0.94875
0.942864
0.936411
0.92866
0.918655
0.910934
0.903259
0.897867
0.892779
0.89162
0.888831
0.892586
0.894686
0.895924
0.90169
0.904018
0.907945
0.915158
0.919113
0.926678
0.930722
0.937512
0.941685
0.949339
0.952947
0.959367
0.961972
0.967879
0.970449
0.9766
0.97966
0.985333
0.987895
0.993465
0.995441
1.00082
1.00363
1.0089
1.0114
1.01679
1.01975
1.02604
1.02924
1.03587
1.03934
1.04665
1.05104
1.05807
1.0627
1.07025
1.07561
1.08389
1.08964
1.09863
1.10544
1.11505
1.12249
1.13421
1.14316
1.15528
1.16722
1.17889
1.19413
1.20455
1.21763
1.22981
1.24163
1.2478
1.25753
1.24795
1.23729
1.19856
1.16478
1.11625
1.06548
1.02007
0.978589
0.935897
0.895375
0.858706
0.827926
0.793385
0.772822
0.760471
0.746332
0.739919
0.733055
0.729213
0.727988
0.729397
0.730345
0.731336
0.733273
0.736115
0.739117
0.741663
0.743203
0.743978
0.744397
0.744375
0.745317
0.744621
0.743285
0.741811
0.741532
0.738429
0.736172
0.73213
0.726959
0.725171
0.724707
0.72482
0.725339
0.725569
0.725858
0.725997
0.726798
0.725596
0.719587
0.718225
0.714586
0.714612
0.715678
0.717946
0.722349
0.730362
0.759258
0.808103
0.835516
0.831614
0.820608
0.822253
0.821401
0.825967
0.823017
0.827063
0.83109
0.830116
0.840705
0.847033
0.854925
0.86717
0.868907
0.867264
0.881217
0.875143
0.867855
0.899446
0.865591
0.856961
0.932903
0.872069
0.844816
0.877999
0.88977
0.864014
0.852237
0.868771
0.872534
0.850092
0.853555
0.867497
0.860811
0.878482
0.912586
0.903427
0.899853
0.90131
0.928455
0.944901
0.9118
0.888379
0.897838
0.920707
0.95595
0.985875
0.995193
0.993434
0.981917
0.968993
0.951302
0.912475
0.883603
0.884496
0.872578
0.852091
0.838028
0.818777
0.797851
0.77924
0.76539
0.75048
0.73732
0.723434
0.710737
0.702074
0.696188
0.693307
0.693663
0.692139
0.686174
0.682424
0.674071
0.669613
0.661922
0.660892
0.669302
0.675838
0.690086
0.697301
0.708522
0.718963
0.730645
0.737365
0.755664
0.759907
0.782071
0.782846
0.807425
0.813036
0.830677
0.856725
0.857237
0.892169
0.902066
0.921809
0.918853
0.933316
0.932632
0.803244
0.766589
0.838863
0.997494
1.06085
1.07725
1.06457
1.05007
1.04495
1.03272
1.02209
1.01938
1.01501
1.00927
1.00632
1.00426
1.00404
1.00142
1.00255
1.00087
1.00089
1.0006
1.00027
1.00018
0.999983
1.00006
1.00011
1.00015
1.00016
1.0003
1.00062
1.0008
1.0018
1.00166
1.00206
1.00326
1.00512
1.00552
1.0086
1.01736
1.01695
1.01569
1.02773
1.04744
1.05013
1.05917
1.06341
1.04557
1.00509
0.962049
0.971901
1.07533
1.09446
1.09858
1.09461
1.09149
1.08593
1.08228
1.07905
1.07755
1.07609
1.078
1.07828
1.07839
1.07827
1.07904
1.0748
1.07518
1.06992
1.06714
1.06126
1.05601
1.04966
1.04432
1.03826
1.03334
1.02901
1.02557
1.02226
1.01796
1.01466
1.01298
1.01125
1.00979
1.00428
1.00826
1.01671
1.01667
1.01573
1.006
0.990976
0.979838
0.972906
0.979077
0.983885
1.00284
1.01014
1.01228
1.00838
0.99075
0.978077
0.981549
0.998729
1.01305
1.02124
0.99752
0.979639
0.981143
1.02074
1.03282
1.00722
0.993425
1.00673
1.04058
1.01689
0.992891
1.0294
1.03448
1.00851
1.01831
1.02858
1.0126
1.01392
1.01779
1.00749
1.00475
1.01067
1.00753
0.99801
0.996836
0.99255
0.986053
0.984535
0.980048
0.974796
0.970289
0.965221
0.959871
0.955012
0.949251
0.943573
0.936924
0.929192
0.919459
0.911629
0.904198
0.898653
0.893813
0.892529
0.889722
0.893348
0.895519
0.896008
0.902288
0.904578
0.908537
0.916096
0.920165
0.92761
0.932161
0.93787
0.941853
0.948936
0.95275
0.959551
0.96314
0.96931
0.972075
0.978011
0.98102
0.985516
0.988122
0.993164
0.995323
1.00087
1.00393
1.00945
1.01227
1.01802
1.0212
1.02736
1.03088
1.03703
1.04072
1.04753
1.05141
1.05826
1.06257
1.07003
1.07586
1.0834
1.09067
1.09948
1.10706
1.11687
1.12489
1.1359
1.14469
1.15673
1.16569
1.17968
1.18992
1.20543
1.21657
1.22845
1.23752
1.24367
1.25151
1.23954
1.22464
1.19075
1.1583
1.11062
1.06498
1.01543
0.97909
0.933985
0.89613
0.85967
0.830392
0.79649
0.776672
0.760831
0.750547
0.743518
0.733817
0.732093
0.730883
0.730724
0.730894
0.731896
0.733143
0.735874
0.738872
0.741356
0.742646
0.743706
0.743525
0.744221
0.74415
0.743575
0.742668
0.742328
0.741367
0.738243
0.735924
0.730684
0.725691
0.72392
0.723178
0.723634
0.724041
0.724566
0.724878
0.725251
0.725933
0.724979
0.719187
0.717633
0.713537
0.713897
0.715066
0.717352
0.721638
0.729539
0.758891
0.80962
0.836666
0.832806
0.820444
0.822445
0.822495
0.82547
0.823958
0.827504
0.831579
0.832127
0.841329
0.849339
0.856645
0.865157
0.869218
0.870337
0.879213
0.882798
0.877864
0.895708
0.89156
0.877823
0.919228
0.908314
0.838521
0.904878
0.921558
0.842869
0.860394
0.919937
0.87223
0.870765
0.898125
0.870513
0.860742
0.860343
0.90005
0.904978
0.894926
0.897988
0.92694
0.947759
0.912174
0.885528
0.89292
0.916017
0.951937
0.984914
0.996353
0.994611
0.986797
0.972477
0.951179
0.914499
0.887159
0.883334
0.867729
0.848655
0.834771
0.813955
0.794212
0.776435
0.761443
0.747599
0.731702
0.717467
0.705519
0.696173
0.688046
0.683711
0.686514
0.691471
0.686724
0.681848
0.672108
0.669394
0.655753
0.662705
0.667619
0.675709
0.695558
0.69325
0.714387
0.718844
0.734356
0.736561
0.751482
0.758815
0.773101
0.779704
0.796731
0.808253
0.82003
0.843663
0.847893
0.876205
0.885907
0.904382
0.904555
0.91654
0.910696
0.812766
0.785904
0.856557
1.00198
1.06094
1.07783
1.06394
1.05007
1.04553
1.03306
1.02194
1.01951
1.01514
1.00941
1.00631
1.00519
1.00238
1.00245
1.0014
1.00066
1.00068
1.0003
1.00043
1.00034
1.00008
1.00008
1.00005
1.00011
1.00027
1.00052
1.00018
1.00074
0.999649
1.00249
1.00159
1.00289
1.0047
1.00544
1.00864
1.01765
1.01711
1.01557
1.03076
1.04841
1.04958
1.05868
1.06291
1.04679
1.01183
0.977618
0.999873
1.06772
1.08504
1.08744
1.08768
1.08564
1.08231
1.08038
1.07817
1.07734
1.07838
1.07612
1.07855
1.07619
1.07879
1.0754
1.0766
1.07508
1.07288
1.07082
1.06648
1.06213
1.05681
1.05143
1.04581
1.04059
1.036
1.03182
1.02771
1.02298
1.01923
1.01816
1.01671
1.01785
1.01865
1.0227
1.02855
1.02615
1.0214
1.01328
1.00345
0.99615
0.994358
0.999117
1.00942
1.02369
1.02861
1.02161
1.02139
1.0168
1.00357
0.996823
1.00687
1.03068
1.03567
1.01001
0.999956
1.00459
1.03683
1.04859
1.02207
1.01732
1.02632
1.04901
1.02642
1.01886
1.04022
1.03513
1.01651
1.02755
1.02687
1.01909
1.0157
1.01647
1.01346
1.0072