/*--------------------------------*- C++ -*----------------------------------*\
| =========                 |                                                 |
| \\      /  F ield         | OpenFOAM: The Open Source CFD Toolbox           |
|  \\    /   O peration     | Version:  v2006                                 |
|   \\  /    A nd           | Website:  www.openfoam.com                      |
|    \\/     M anipulation  |                                                 |
\*---------------------------------------------------------------------------*/
FoamFile
{
    version     2.0;
    format      ascii;
    class       volScalarField;
    location    "25";
    object      T;
}
// * * * * * * * * * * * * * * * * * * * * * * * * * * * * * * * * * * * * * //

dimensions      [0 0 0 1 0 0 0];


internalField   nonuniform List<scalar> 
93840
(
1.00004
1.00001
1.0001
1.0001
1.00024
1.00033
0.99965
1.00014
1.00142
1.00138
1.00247
1.00291
1.00423
1.00466
1.0055
1.01017
1.01445
1.01343
1.01788
1.02429
1.0253
1.02091
1.01272
0.999613
1.00882
1.07163
1.09446
1.08698
1.08608
1.07026
1.05549
1.02406
1.03795
1.04882
1.06117
1.05365
1.0667
1.05849
1.06764
1.06441
1.06645
1.06558
1.06692
1.06471
1.06467
1.06294
1.06113
1.05968
1.05849
1.05798
1.05562
1.05476
1.05143
1.0517
1.04998
1.04735
1.04927
1.04273
1.0474
1.04738
1.04678
1.0477
1.04958
1.04607
1.04387
1.04143
1.04271
1.04343
1.04478
1.04688
1.05049
1.0505
1.05034
1.04682
1.04445
1.04622
1.04967
1.05294
1.05476
1.04964
1.04869
1.04998
1.05798
1.0578
1.05282
1.05267
1.05594
1.06008
1.05454
1.05262
1.06001
1.05843
1.0537
1.05733
1.05813
1.05672
1.05646
1.05758
1.0579
1.05683
1.05782
1.05786
1.057
1.05609
1.05456
1.0536
1.05404
1.05271
1.05096
1.04958
1.04782
1.0462
1.04459
1.04241
1.0402
1.03759
1.03452
1.02985
1.02608
1.02187
1.01858
1.0154
1.01318
1.01077
1.00996
1.01035
1.00825
1.00995
1.00896
1.00911
1.01031
1.01104
1.01235
1.01306
1.01381
1.01432
1.01583
1.01638
1.01723
1.01783
1.01817
1.01863
1.01928
1.01985
1.02009
1.02033
1.02073
1.02062
1.02104
1.02163
1.02202
1.02255
1.02303
1.02367
1.02451
1.02507
1.02593
1.02678
1.02793
1.02906
1.03006
1.03072
1.03198
1.03321
1.03471
1.0365
1.03851
1.04065
1.04253
1.04495
1.04793
1.05146
1.05501
1.05867
1.063
1.06828
1.07357
1.08005
1.08702
1.09336
1.09821
1.10329
1.10275
1.08449
1.06837
1.03041
0.995324
0.969066
0.961964
0.958871
0.935445
0.920321
0.912331
0.907828
0.898321
0.90087
0.902706
0.905958
0.908605
0.913209
0.91706
0.923365
0.925257
0.931175
0.933969
0.939992
0.942597
0.949231
0.950411
0.955692
0.955998
0.959774
0.960238
0.964602
0.96384
0.967892
0.967122
0.970613
0.967961
0.970503
0.968188
0.970622
0.969815
0.97441
0.9742
0.978946
0.978471
0.982744
0.982717
0.986453
0.985271
0.985604
0.98519
0.987138
0.987999
0.992547
0.994512
0.999284
1.00636
1.02316
1.04535
1.05516
1.0498
1.04488
1.04417
1.04362
1.04455
1.04264
1.04486
1.04593
1.04663
1.0508
1.05302
1.05558
1.05923
1.05913
1.05931
1.06196
1.06339
1.06159
1.06432
1.0697
1.06117
1.0637
1.07317
1.06344
1.05831
1.07091
1.06769
1.05412
1.05991
1.07116
1.05337
1.04876
1.03986
1.02641
1.02189
1.03025
1.02426
1.02407
1.02198
1.03036
1.03243
1.02182
1.01299
1.01714
1.02513
1.03501
1.04168
1.04487
1.04408
1.03991
1.03576
1.03136
1.01974
1.0085
1.00243
0.994132
0.994279
1.01418
1.01151
1.00137
0.983483
0.978829
0.9792
0.972335
0.977354
0.969294
0.969418
0.959987
0.959728
0.947147
0.948166
0.937794
0.941908
0.934001
0.933651
0.929105
0.92826
0.933101
0.932151
0.941844
0.937756
0.949875
0.948594
0.961253
0.962574
0.972125
0.98149
0.985229
1.00022
0.999887
1.01476
1.01242
1.02843
1.0157
1.01953
1.05901
1.0911
1.09374
1.08161
1.09169
1.02105
1.02215
1.00622
1.01407
1.02155
1.02565
1.02441
1.01816
1.01354
1.01497
1.01048
1.00557
1.00464
1.00423
1.00295
1.00187
1.00147
1.00073
1.00158
1.00049
1.00045
1.00012
1.0002
1.00012
1.00003
1.00003
1.00005
1.0001
1.00011
1.00019
1.00012
1.00041
1.00063
1.00143
1.00059
1.00148
1.00224
1.00288
1.0042
1.00476
1.00541
1.00979
1.01375
1.0131
1.01812
1.02422
1.02493
1.02033
1.01093
0.991684
0.985222
1.06987
1.09644
1.0927
1.09147
1.08379
1.07606
1.06477
1.06035
1.07023
1.06429
1.06796
1.06808
1.0698
1.07038
1.07272
1.07284
1.07235
1.07311
1.07167
1.07164
1.07046
1.06898
1.06848
1.06652
1.06491
1.06251
1.06033
1.06011
1.05901
1.05695
1.05195
1.05583
1.05002
1.05478
1.05354
1.05275
1.05623
1.05485
1.05191
1.05166
1.05054
1.04913
1.04946
1.05188
1.05355
1.05776
1.05685
1.05678
1.05453
1.05231
1.0532
1.05641
1.05995
1.06266
1.05735
1.05672
1.05694
1.0642
1.06499
1.06123
1.06065
1.06206
1.06806
1.06296
1.06133
1.06657
1.06564
1.06229
1.0644
1.0651
1.06333
1.06194
1.06274
1.06224
1.06024
1.06043
1.0597
1.05785
1.05621
1.05386
1.0522
1.05217
1.04973
1.04728
1.04503
1.04242
1.03988
1.03737
1.0342
1.03098
1.02724
1.02304
1.01724
1.0126
1.00741
1.00361
0.99984
0.997341
0.994705
0.993976
0.994297
0.992215
0.99432
0.993245
0.993852
0.995281
0.996387
0.997939
0.998858
0.999885
1.00075
1.00246
1.00308
1.00428
1.00491
1.00543
1.00618
1.00697
1.00765
1.00815
1.00853
1.00913
1.0093
1.01001
1.01079
1.01155
1.01234
1.01318
1.01427
1.01543
1.01654
1.01786
1.01925
1.02102
1.02262
1.02448
1.02585
1.02811
1.03027
1.03277
1.0356
1.03869
1.04192
1.045
1.04863
1.05254
1.05696
1.06143
1.06612
1.07091
1.07616
1.08222
1.08804
1.0943
1.1002
1.10452
1.10713
1.10351
1.09504
1.07721
1.04919
1.025
0.994128
0.97584
0.964306
0.940795
0.922886
0.906921
0.897604
0.881761
0.87962
0.876506
0.876211
0.875759
0.879218
0.879772
0.885274
0.885411
0.891147
0.892925
0.899392
0.901332
0.909427
0.910176
0.916794
0.916964
0.9224
0.92243
0.928441
0.92725
0.932961
0.931471
0.93626
0.933288
0.93751
0.93409
0.937686
0.935515
0.941751
0.940393
0.946778
0.945477
0.951361
0.950605
0.955959
0.954126
0.955975
0.954324
0.957674
0.957257
0.963511
0.964943
0.971248
0.978394
0.997018
1.025
1.04009
1.03685
1.03252
1.03269
1.0323
1.03446
1.03279
1.03525
1.03699
1.03792
1.04332
1.04668
1.04975
1.05517
1.0561
1.05668
1.06054
1.06307
1.06189
1.06625
1.07129
1.06604
1.06859
1.07922
1.07045
1.06778
1.08224
1.07912
1.06394
1.07112
1.07804
1.06343
1.05701
1.0453
1.03074
1.02336
1.03269
1.02761
1.02651
1.02451
1.03176
1.03387
1.02482
1.01658
1.01954
1.02681
1.03678
1.04328
1.04542
1.04554
1.04327
1.03884
1.03198
1.01792
1.00393
0.997472
0.998625
1.01274
1.01679
0.995584
0.984113
0.969892
0.970408
0.95969
0.962821
0.954317
0.951035
0.945507
0.939159
0.932974
0.928751
0.925069
0.921844
0.922585
0.917392
0.916918
0.914729
0.919189
0.920472
0.928438
0.929763
0.935031
0.941382
0.947302
0.95758
0.956166
0.966955
0.970217
0.977819
0.982896
0.986732
0.996068
0.991715
1.00405
1.0125
1.0352
1.05967
1.08256
1.08631
1.0861
1.08245
1.01456
1.05076
1.01356
1.01624
1.02251
1.02616
1.0242
1.01744
1.01402
1.01572
1.01084
1.00563
1.00454
1.00427
1.00298
1.00255
1.00085
1.0011
0.999867
1.00018
1.00026
1.00024
1.00014
1.00011
1.00004
1.00004
1.00004
1.00008
1.00009
1.00008
1.00028
1.00034
0.99988
1.00012
1.00105
1.00158
1.0026
1.00285
1.00419
1.00485
1.00536
1.00947
1.01336
1.01294
1.01811
1.02441
1.02454
1.01964
1.00865
0.985721
0.974217
1.05996
1.09384
1.09613
1.09361
1.08839
1.08254
1.07164
1.06591
1.07107
1.06867
1.07054
1.07361
1.06983
1.07557
1.07504
1.07493
1.07388
1.07445
1.07274
1.07401
1.07419
1.07186
1.07015
1.06809
1.06875
1.06603
1.06294
1.06473
1.05837
1.06033
1.05476
1.05853
1.05633
1.05571
1.0576
1.05473
1.06123
1.05745
1.05546
1.05722
1.05325
1.05231
1.05546
1.05818
1.05717
1.06057
1.06063
1.06086
1.05946
1.05606
1.05644
1.05989
1.06322
1.0653
1.0613
1.0596
1.0606
1.06697
1.06873
1.06444
1.06455
1.06607
1.0719
1.06674
1.06369
1.07117
1.06881
1.0646
1.06679
1.06748
1.06451
1.0629
1.06338
1.06213
1.05941
1.05933
1.05787
1.05516
1.05316
1.04992
1.04749
1.04733
1.04389
1.04078
1.03804
1.03457
1.03134
1.02815
1.02435
1.02043
1.01601
1.0112
1.00492
0.999932
0.994252
0.990486
0.98652
0.984032
0.981469
0.98103
0.981396
0.979588
0.981871
0.981017
0.981939
0.983635
0.984991
0.986795
0.988069
0.989189
0.990362
0.992321
0.993123
0.994579
0.995401
0.996233
0.997154
0.998274
0.999319
1.00009
1.00079
1.00174
1.00216
1.00333
1.0044
1.00552
1.00668
1.00779
1.00934
1.01086
1.01237
1.01408
1.01578
1.0179
1.01984
1.02191
1.02354
1.02594
1.02798
1.03083
1.03336
1.03656
1.03952
1.04253
1.04615
1.04972
1.05429
1.05797
1.06268
1.06683
1.07256
1.07784
1.08386
1.08989
1.09773
1.09961
1.10358
1.10049
1.09105
1.0732
1.05097
1.01915
0.993325
0.974657
0.963579
0.939892
0.923529
0.90833
0.899612
0.883493
0.879416
0.875904
0.87436
0.872963
0.873579
0.872471
0.87598
0.873701
0.878269
0.878549
0.882395
0.882302
0.890153
0.887718
0.894004
0.891706
0.897747
0.895661
0.902401
0.899677
0.906241
0.903115
0.910009
0.905115
0.910751
0.90564
0.911127
0.906976
0.915072
0.91161
0.920229
0.916777
0.925033
0.921931
0.929992
0.92555
0.930567
0.925991
0.932866
0.928981
0.93894
0.936578
0.947449
0.950095
0.974349
1.00129
1.02044
1.0181
1.01441
1.01647
1.01602
1.02057
1.01965
1.02229
1.02518
1.02578
1.03303
1.03763
1.04027
1.04782
1.05026
1.04995
1.05571
1.05934
1.05739
1.06391
1.07163
1.06325
1.06895
1.08063
1.07317
1.07051
1.08574
1.08297
1.06854
1.07501
1.0837
1.0686
1.06416
1.05011
1.03342
1.02614
1.03433
1.02976
1.02757
1.02471
1.03249
1.03398
1.02401
1.01598
1.01805
1.02402
1.03368
1.03862
1.04055
1.0428
1.04297
1.03898
1.0315
1.01329
0.998741
0.992369
1.00698
1.01812
1.00243
0.988769
0.974282
0.964702
0.958495
0.952877
0.951948
0.945602
0.94132
0.93765
0.933479
0.929013
0.924798
0.921284
0.918778
0.916459
0.913574
0.911578
0.911939
0.915702
0.919717
0.923072
0.92701
0.933371
0.940285
0.947642
0.954172
0.955402
0.963303
0.968971
0.975698
0.979309
0.987712
0.997359
0.994185
1.00523
1.01726
1.04403
1.05474
1.0775
1.08149
1.08085
1.07649
1.02557
1.06911
1.01297
1.01873
1.02363
1.02667
1.02445
1.01708
1.01454
1.0163
1.01111
1.00572
1.00454
1.00432
1.00301
1.00178
1.00166
1.0006
1.00166
1.00017
1.00047
1.00012
1.00016
1.00012
1.00004
1.00006
1.00004
1.00004
1.0001
1.00017
1.00013
1.0003
1.0006
1.00146
1.00092
1.00197
1.00184
1.00285
1.00415
1.00497
1.00535
1.00922
1.01304
1.01334
1.01805
1.02423
1.0242
1.01939
1.00752
0.983217
0.971915
1.051
1.09116
1.09909
1.08304
1.0897
1.08449
1.07455
1.0749
1.07099
1.0708
1.06635
1.07079
1.06592
1.06869
1.06622
1.06721
1.06549
1.07201
1.06843
1.07267
1.07019
1.06933
1.06839
1.06852
1.06851
1.0656
1.06284
1.06224
1.06018
1.05813
1.05568
1.05499
1.05814
1.05164
1.06137
1.05693
1.06311
1.05862
1.05361
1.05591
1.0515
1.05527
1.05636
1.05495
1.05893
1.06617
1.06478
1.06328
1.06387
1.05603
1.05629
1.05924
1.06666
1.07133
1.06097
1.05753
1.06048
1.0714
1.07185
1.06512
1.0629
1.06736
1.07542
1.06736
1.06444
1.07253
1.06812
1.06417
1.06699
1.06682
1.06253
1.06106
1.06125
1.0595
1.05577
1.05565
1.0535
1.04981
1.04735
1.04387
1.04062
1.04061
1.03624
1.0326
1.02966
1.0253
1.02173
1.01805
1.01378
1.00954
1.00456
0.999529
0.993073
0.987899
0.982079
0.978506
0.974507
0.972199
0.969797
0.969618
0.970006
0.968685
0.971154
0.970654
0.971921
0.973896
0.975632
0.97771
0.979198
0.980729
0.982429
0.984461
0.985612
0.987451
0.988569
0.989766
0.991349
0.992796
0.994235
0.99561
0.996649
0.998276
0.999172
1.00099
1.00234
1.00391
1.00543
1.00661
1.00879
1.01018
1.01251
1.01436
1.01654
1.01919
1.02107
1.02402
1.02536
1.02848
1.03013
1.03328
1.03535
1.03874
1.04157
1.04454
1.04828
1.05148
1.05638
1.06027
1.06514
1.07022
1.07477
1.08162
1.086
1.09046
1.0966
1.10148
1.10187
1.09889
1.0927
1.07692
1.05749
1.03238
1.00764
0.987064
0.972025
0.95164
0.932617
0.917694
0.90467
0.88997
0.883871
0.879
0.876319
0.873841
0.873635
0.872069
0.873815
0.873493
0.875732
0.876139
0.879046
0.879553
0.882384
0.882981
0.885096
0.885287
0.889102
0.883241
0.890685
0.884767
0.891935
0.885665
0.892996
0.885953
0.892871
0.885031
0.891787
0.884444
0.894832
0.888036
0.898878
0.892199
0.903076
0.896519
0.907898
0.899698
0.908681
0.899661
0.91111
0.90163
0.917603
0.908172
0.926715
0.920885
0.954703
0.974986
0.998263
0.99601
0.991519
0.996255
0.994817
1.00214
1.0026
1.00522
1.00999
1.01029
1.01926
1.02615
1.02738
1.03797
1.04235
1.04029
1.0481
1.05414
1.05102
1.05831
1.06877
1.06149
1.06428
1.082
1.07162
1.07234
1.08406
1.08387
1.07007
1.07847
1.08835
1.07197
1.07104
1.05353
1.03524
1.02787
1.03622
1.031
1.02762
1.0234
1.03094
1.03278
1.02321
1.01674
1.01766
1.01851
1.0243
1.02762
1.02841
1.03458
1.04078
1.04161
1.02843
1.00786
0.995832
0.999087
1.01636
1.01477
0.99627
0.983162
0.969604
0.960914
0.95433
0.950821
0.948504
0.943472
0.940831
0.938468
0.936336
0.933245
0.929799
0.926106
0.922978
0.920705
0.920285
0.919226
0.919598
0.920009
0.922665
0.927878
0.933583
0.937745
0.944016
0.951196
0.955789
0.962423
0.969944
0.972683
0.977417
0.981949
0.985671
0.995173
1.00274
1.01278
1.0251
1.0529
1.06898
1.07672
1.07367
1.06961
1.07335
1.0259
1.07441
1.0152
1.02117
1.02478
1.0271
1.02449
1.01693
1.0149
1.01673
1.0113
1.00582
1.00445
1.00437
1.00297
1.00291
1.00104
1.00103
0.999824
1.00034
1.00028
1.00025
1.00015
1.00009
1.00004
1.00003
1.00005
1.00005
1.00009
1.00012
1.00026
1.00039
0.999491
1.00031
1.0011
1.00092
1.00235
1.00282
1.00413
1.00504
1.00532
1.00902
1.0128
1.01358
1.018
1.02418
1.02385
1.01866
1.00584
0.980185
0.962574
1.06373
1.08268
1.09082
1.07948
1.07632
1.06892
1.06283
1.06109
1.05728
1.0572
1.05868
1.05756
1.05724
1.06232
1.06155
1.06341
1.06765
1.0686
1.0695
1.07174
1.07182
1.07128
1.07196
1.07055
1.06909
1.06784
1.06579
1.06154
1.05735
1.0525
1.05067
1.0544
1.05428
1.05849
1.05873
1.06562
1.05749
1.06493
1.05158
1.05231
1.04558
1.04673
1.0484
1.05253
1.05806
1.06037
1.06275
1.06662
1.05957
1.04596
1.04927
1.05723
1.06766
1.06623
1.05308
1.04911
1.05475
1.0753
1.06903
1.05273
1.05929
1.06989
1.06969
1.06181
1.06275
1.07427
1.06628
1.05826
1.0681
1.0649
1.0541
1.0566
1.05979
1.05047
1.04808
1.05228
1.04237
1.04199
1.04139
1.02964
1.0309
1.03084
1.02229
1.02122
1.01586
1.00996
1.00874
1.0015
0.998017
0.995157
0.986461
0.985026
0.977354
0.97137
0.969021
0.962761
0.961581
0.959253
0.95666
0.959072
0.958096
0.958974
0.961556
0.961367
0.964082
0.966034
0.968371
0.971403
0.972489
0.975472
0.976727
0.97972
0.981571
0.983351
0.985925
0.986673
0.989248
0.990618
0.991891
0.994083
0.993986
0.997245
0.996907
1.00017
1.00125
1.00307
1.00573
1.00581
1.00956
1.00931
1.01268
1.01346
1.0155
1.01829
1.01923
1.0231
1.02336
1.02768
1.02858
1.03256
1.03484
1.03802
1.04148
1.04408
1.04818
1.0517
1.0551
1.06077
1.06231
1.07035
1.07161
1.08042
1.08559
1.0907
1.09369
1.0984
1.10013
1.09689
1.08932
1.07534
1.05753
1.03258
1.00949
0.989475
0.975751
0.954958
0.937791
0.923142
0.911294
0.89561
0.889943
0.883698
0.882492
0.87904
0.878359
0.877434
0.879155
0.878297
0.879885
0.880085
0.882299
0.882771
0.885721
0.886215
0.888025
0.887623
0.889015
0.888029
0.889294
0.888118
0.888867
0.887984
0.889996
0.883621
0.887238
0.881184
0.883039
0.878914
0.883345
0.879516
0.883374
0.881919
0.884674
0.883794
0.885785
0.885237
0.883168
0.883872
0.881949
0.884765
0.884532
0.889426
0.890308
0.900651
0.923842
0.947369
0.965013
0.96486
0.953835
0.964145
0.959596
0.968155
0.970022
0.97382
0.978692
0.982391
0.989666
0.99923
1.00126
1.01451
1.02768
1.02007
1.03249
1.04738
1.03668
1.04806
1.06696
1.05547
1.0602
1.07659
1.0725
1.06707
1.08803
1.0873
1.07091
1.08113
1.09217
1.07708
1.08046
1.06597
1.04375
1.03252
1.0386
1.03254
1.02749
1.02227
1.02967
1.03191
1.0235
1.01667
1.0129
1.01367
1.01705
1.01859
1.01859
1.02489
1.03647
1.03688
1.01987
1.00397
0.996224
1.00774
1.02112
1.00166
0.991219
0.977391
0.9645
0.957212
0.952985
0.950292
0.947451
0.944536
0.942618
0.939951
0.936171
0.931658
0.928505
0.925372
0.923304
0.921556
0.921116
0.9193
0.919976
0.921008
0.922212
0.925549
0.933637
0.938783
0.949297
0.953356
0.962661
0.96381
0.969339
0.976144
0.984971
0.99084
0.994738
1.00427
1.00656
1.02583
1.02952
1.04561
1.0648
1.06929
1.06386
1.06299
1.06429
1.01851
1.08726
1.02201
1.02373
1.02605
1.02761
1.02462
1.01677
1.01533
1.01721
1.01148
1.00591
1.00456
1.00439
1.00302
1.00222
1.00151
1.00028
1.00169
1.00058
1.00047
1.00011
1.00015
1.00011
1.00007
1.00004
1.00004
1.00006
1.00011
1.00019
1.00011
1.00032
1.00104
1.00138
1.00096
1.00132
1.00213
1.0028
1.00413
1.0052
1.00534
1.00885
1.01248
1.01425
1.01788
1.02411
1.02354
1.01828
1.00542
0.983674
0.969776
1.06834
1.06504
1.06731
1.06558
1.06089
1.05866
1.05527
1.05525
1.05426
1.05242
1.05446
1.05406
1.05623
1.05682
1.05643
1.05906
1.06059
1.06229
1.06522
1.06653
1.06883
1.06877
1.06794
1.06564
1.06398
1.06199
1.05922
1.05499
1.05159
1.05195
1.05294
1.05127
1.05118
1.05165
1.05708
1.06305
1.06127
1.05508
1.05696
1.04957
1.05398
1.05077
1.05068
1.04856
1.05524
1.06172
1.06322
1.06407
1.06211
1.049
1.04522
1.05853
1.06694
1.07237
1.05216
1.0442
1.05024
1.07722
1.07051
1.04847
1.04029
1.06935
1.08468
1.03666
1.04284
1.0842
1.06075
1.03687
1.05841
1.06472
1.04455
1.03169
1.05895
1.04471
1.01762
1.04571
1.03133
1.01323
1.03099
1.01541
1.00432
1.01745
1.00451
0.996609
1.00507
0.993216
0.984159
0.996357
0.979792
0.977949
0.983437
0.966833
0.971767
0.965281
0.956951
0.96361
0.95159
0.957617
0.954654
0.952679
0.959678
0.953507
0.960818
0.960605
0.960266
0.967615
0.96508
0.971279
0.972906
0.972875
0.979479
0.977029
0.982363
0.983825
0.982696
0.990118
0.984873
0.993664
0.990677
0.993953
0.997381
0.993807
1.0021
0.996133
1.00434
1.00178
1.0046
1.00851
1.00534
1.01455
1.00826
1.01828
1.01361
1.02036
1.02084
1.02172
1.02771
1.02396
1.03397
1.02856
1.0389
1.03572
1.04352
1.04458
1.04812
1.05454
1.0545
1.06441
1.06331
1.07263
1.07498
1.07946
1.08585
1.09165
1.09572
1.09772
1.09843
1.09498
1.09011
1.07702
1.06156
1.04138
1.01721
0.9992
0.982515
0.962978
0.945951
0.928954
0.916567
0.900733
0.892199
0.888087
0.881403
0.880708
0.876027
0.877045
0.876343
0.878018
0.878439
0.87827
0.880893
0.881523
0.883853
0.88499
0.886295
0.886072
0.887469
0.886726
0.887695
0.886713
0.887243
0.886386
0.886154
0.8844
0.883681
0.881669
0.879164
0.878491
0.878066
0.878585
0.878686
0.879353
0.879051
0.879569
0.87949
0.879218
0.875686
0.875743
0.873584
0.874253
0.874669
0.876646
0.878649
0.886315
0.906005
0.930437
0.951962
0.936137
0.922086
0.945009
0.926846
0.932692
0.956934
0.922275
0.959325
0.940176
0.941058
0.986633
0.947947
0.974222
1.00217
0.966694
0.996847
1.01239
0.991032
1.01609
1.05811
1.0371
1.02719
1.06981
1.0714
1.06362
1.07879
1.08805
1.07756
1.07666
1.09028
1.07949
1.08511
1.07701
1.05268
1.0381
1.04159
1.03394
1.02812
1.02325
1.02909
1.03202
1.02361
1.01401
1.01309
1.01567
1.01566
1.01749
1.01964
1.01968
1.02843
1.02501
1.01153
1.00356
1.00286
1.01586
1.01072
0.99832
0.987289
0.973589
0.962238
0.955454
0.952458
0.951157
0.949817
0.947727
0.945286
0.941647
0.937669
0.933748
0.930702
0.926991
0.925444
0.92489
0.924693
0.925436
0.925385
0.928185
0.932141
0.932037
0.939134
0.946981
0.949016
0.959713
0.963498
0.969766
0.982139
0.977446
0.988697
0.988297
0.996071
1.01102
1.00902
1.02358
1.0367
1.04012
1.05556
1.06073
1.05706
1.06075
1.05556
1.01241
1.06619
1.03707
1.02658
1.02718
1.02819
1.02489
1.01663
1.01566
1.01753
1.01159
1.00601
1.00449
1.00443
1.00297
1.00241
1.00166
1.00112
0.999871
1.00011
1.00033
1.00026
1.00015
1.00008
1.00001
1.00003
1.00004
1.00007
1.00007
1.00011
1.00026
1.0004
0.999499
1.00047
1.00061
1.00092
1.00229
1.00276
1.00413
1.00541
1.00529
1.00868
1.01238
1.01486
1.01761
1.02395
1.02331
1.01797
1.00591
0.986342
0.968861
1.03888
1.05478
1.05255
1.05402
1.04953
1.04736
1.04501
1.04226
1.04241
1.04142
1.04108
1.04212
1.04313
1.046
1.04727
1.0474
1.05158
1.05475
1.05619
1.05949
1.06039
1.06142
1.06148
1.06041
1.05945
1.05805
1.05691
1.05432
1.05201
1.05097
1.05199
1.05156
1.05211
1.05398
1.05812
1.05976
1.05139
1.04735
1.05224
1.05912
1.06136
1.06353
1.05692
1.0519
1.05595
1.06123
1.06322
1.06107
1.05323
1.04843
1.04943
1.05786
1.0674
1.07634
1.0595
1.04844
1.05539
1.06531
1.06672
1.05129
1.06205
1.0666
1.06103
1.03603
1.05935
1.07346
1.03383
1.03105
1.06937
1.03761
1.01834
1.04305
1.0334
1.0126
1.02335
1.03273
1.0008
1.0107
1.01949
0.989328
1.0062
1.00837
0.980821
1.00618
0.985552
0.981187
0.993771
0.980094
0.980454
0.977545
0.975259
0.971108
0.967684
0.963601
0.959852
0.958122
0.955898
0.954668
0.954747
0.953959
0.957525
0.955365
0.960525
0.959271
0.963054
0.964092
0.967945
0.969115
0.972891
0.973399
0.977816
0.978281
0.982211
0.982628
0.985585
0.986173
0.988435
0.989713
0.992268
0.992803
0.99611
0.995634
0.999574
0.998724
1.00269
1.00241
1.00514
1.0059
1.008
1.00952
1.01174
1.01309
1.01634
1.01742
1.02145
1.02198
1.02613
1.02691
1.03091
1.03232
1.03595
1.03829
1.04163
1.04408
1.04836
1.04994
1.0568
1.05645
1.06618
1.06501
1.07659
1.07762
1.08409
1.08777
1.0928
1.09602
1.09671
1.09294
1.08619
1.0753
1.06111
1.04018
1.02022
1.00123
0.985208
0.966187
0.94901
0.933437
0.920809
0.905387
0.897982
0.891123
0.887372
0.885508
0.88102
0.881984
0.880558
0.882302
0.881315
0.883032
0.882505
0.885678
0.886175
0.888608
0.88854
0.889648
0.889137
0.890198
0.889277
0.889618
0.88847
0.889231
0.888618
0.886635
0.884883
0.883815
0.880857
0.880178
0.879871
0.880248
0.880355
0.880634
0.880583
0.881374
0.880796
0.880788
0.877419
0.876931
0.874752
0.875091
0.875758
0.876817
0.878706
0.884301
0.900423
0.9253
0.935214
0.9352
0.927031
0.935703
0.924309
0.926735
0.930105
0.931631
0.934287
0.941549
0.932863
0.955336
0.955055
0.928694
0.971618
0.966332
0.93394
1.0146
0.9791
0.956918
1.02931
1.01915
0.98917
1.04798
1.05494
1.01638
1.06969
1.09363
1.07254
1.07819
1.08976
1.08247
1.08624
1.08201
1.05799
1.04197
1.04461
1.03506
1.029
1.02363
1.02939
1.03324
1.02358
1.01296
1.01248
1.01676
1.01654
1.0176
1.02013
1.01833
1.02062
1.01786
1.01052
1.0116
1.01273
1.01629
1.00352
0.995914
0.982642
0.969854
0.960476
0.955123
0.952857
0.952477
0.952317
0.950706
0.947217
0.9421
0.937308
0.934464
0.933865
0.931474
0.929485
0.928933
0.927846
0.928146
0.926034
0.928765
0.931055
0.930584
0.937405
0.939538
0.956691
0.952142
0.968355
0.974264
0.969047
0.994383
0.97143
1.00716
0.988916
1.00929
1.00997
1.02401
1.02426
1.03948
1.04023
1.05212
1.05111
1.05692
1.05009
1.00956
1.05329
1.02814
1.02837
1.02834
1.02879
1.02512
1.01636
1.01606
1.0179
1.01165
1.00609
1.00455
1.00447
1.00302
1.00194
1.00192
1.00051
1.00201
1.00036
1.00039
1.0001
1.00016
1.00013
1.00008
1.00005
1.00005
1.00005
1.00012
1.00017
1.00013
1.00037
1.00084
1.00115
1.00088
1.00174
1.0023
1.00273
1.00413
1.00557
1.00525
1.0085
1.01295
1.01597
1.01751
1.0237
1.02313
1.01804
1.00606
0.989291
0.994084
1.02061
1.03329
1.04668
1.04417
1.03857
1.03773
1.03584
1.03478
1.03452
1.03437
1.03404
1.03552
1.03686
1.03701
1.03761
1.03981
1.04036
1.04311
1.04406
1.04593
1.04749
1.04835
1.04862
1.04878
1.04858
1.04854
1.04856
1.04797
1.04685
1.04731
1.04909
1.04886
1.04738
1.0451
1.04661
1.0429
1.03833
1.04057
1.04939
1.05663
1.06002
1.05611
1.05162
1.04978
1.05574
1.06289
1.06275
1.05993
1.0616
1.06809
1.06438
1.0589
1.06445
1.06646
1.05738
1.06525
1.06704
1.06399
1.06178
1.05599
1.06469
1.06084
1.05481
1.04424
1.06193
1.05417
1.01948
1.03942
1.04958
1.0087
1.02489
1.03154
1.01342
1.01205
1.01837
1.00507
0.994291
1.01747
0.995648
0.989419
1.00926
0.991483
0.992172
0.991967
0.988086
0.985666
0.985337
0.982694
0.979913
0.9774
0.974728
0.971479
0.9673
0.963692
0.96024
0.957999
0.956519
0.955162
0.95534
0.954564
0.957356
0.955779
0.960275
0.959586
0.963487
0.964395
0.968697
0.96981
0.973451
0.974078
0.977337
0.978072
0.981618
0.982543
0.985897
0.986691
0.989958
0.9904
0.993345
0.993163
0.995668
0.996025
0.998533
0.999145
1.0022
1.00275
1.00588
1.00653
1.00961
1.01023
1.0135
1.01405
1.01746
1.01834
1.02152
1.02243
1.02558
1.02708
1.03022
1.03244
1.0363
1.0385
1.04317
1.04546
1.05027
1.05322
1.05813
1.0616
1.06532
1.07071
1.07267
1.08064
1.08427
1.0895
1.09142
1.09453
1.09492
1.09092
1.08723
1.07612
1.06305
1.0458
1.02511
1.00626
0.990768
0.971478
0.95586
0.938765
0.926415
0.909303
0.901413
0.893749
0.888711
0.883985
0.882666
0.878927
0.88013
0.879222
0.880561
0.88058
0.881904
0.88261
0.885357
0.885715
0.887183
0.887037
0.887402
0.888392
0.887431
0.887722
0.886878
0.886981
0.886376
0.884576
0.884157
0.881708
0.879775
0.878394
0.878189
0.87854
0.878502
0.879132
0.878892
0.879634
0.879553
0.878951
0.876033
0.875483
0.873403
0.873404
0.87434
0.875259
0.877396
0.881648
0.897156
0.922504
0.931983
0.930558
0.926207
0.926826
0.927317
0.926769
0.927463
0.929692
0.931036
0.933219
0.936118
0.940901
0.943187
0.942838
0.947025
0.951651
0.948565
0.963036
0.9698
0.950639
1.00495
0.999079
0.933379
1.03749
1.0394
1.00022
1.04398
1.06789
1.03608
1.05288
1.08224
1.06212
1.08391
1.10094
1.07417
1.04791
1.05064
1.03806
1.03165
1.02488
1.03045
1.0341
1.02332
1.01201
1.01223
1.01841
1.01635
1.0169
1.01959
1.0194
1.01789
1.01546
1.01534
1.01954
1.02004
1.01086
1.00265
0.99308
0.977263
0.964907
0.958061
0.954129
0.952198
0.953377
0.953351
0.951695
0.949052
0.944883
0.940768
0.938241
0.936181
0.932858
0.934202
0.934867
0.932622
0.933682
0.929699
0.929448
0.922407
0.926582
0.927382
0.933233
0.948023
0.950242
0.963291
0.963871
0.976937
0.980061
0.98489
0.993202
0.99321
1.0094
1.00493
1.01587
1.02667
1.02525
1.03525
1.0404
1.04306
1.05118
1.04213
1.00525
1.03047
1.04194
1.03382
1.0299
1.02941
1.02574
1.01661
1.01649
1.01817
1.01162
1.00616
1.00457
1.00452
1.00296
1.0027
1.00087
1.00089
0.99969
1.00041
1.00047
1.00021
1.00014
1.00009
1.00002
1.00003
1.00005
1.00006
1.00008
1.00015
1.00027
1.00043
0.999663
1.00058
1.00075
1.00098
1.00215
1.00269
1.00415
1.00586
1.00529
1.00829
1.01459
1.01636
1.01724
1.02355
1.02295
1.01784
1.006
0.987787
0.991311
1.02256
1.02861
1.03858
1.03923
1.03544
1.03385
1.03207
1.0306
1.02988
1.02933
1.02978
1.03043
1.02991
1.03123
1.03116
1.03166
1.03175
1.03195
1.03256
1.03297
1.03302
1.03263
1.03179
1.03021
1.02807
1.02605
1.02427
1.02277
1.02181
1.02118
1.0219
1.02297
1.02545
1.02821
1.03029
1.02954
1.02569
1.02775
1.03172
1.04002
1.04391
1.05189
1.0489
1.04969
1.04455
1.04485
1.04222
1.04766
1.05405
1.05503
1.05542
1.05013
1.05317
1.04948
1.05141
1.06039
1.0605
1.05251
1.03985
1.04304
1.05353
1.04629
1.03293
1.02773
1.04449
1.03015
1.01495
1.02415
1.01961
1.01159
1.01589
1.00868
1.00561
1.01311
1.007
1.00053
1.00031
1.0023
0.998084
0.995529
0.996307
0.995227
0.992942
0.990607
0.988442
0.986184
0.984319
0.982378
0.979851
0.977331
0.974754
0.971601
0.967247
0.96374
0.960141
0.957831
0.956525
0.955041
0.955232
0.95506
0.957557
0.9566
0.960512
0.96001
0.963687
0.964303
0.968111
0.969341
0.972669
0.974309
0.977488
0.979189
0.982299
0.98266
0.985526
0.985916
0.988645
0.989671
0.992742
0.99335
0.996056
0.99674
0.999161
0.999589
1.00235
1.00286
1.00538
1.00619
1.00858
1.00941
1.01249
1.01344
1.017
1.01818
1.02163
1.02314
1.02621
1.02798
1.03097
1.03296
1.03604
1.0382
1.04168
1.04409
1.048
1.05104
1.05582
1.05928
1.06491
1.06802
1.07434
1.07699
1.0821
1.08685
1.0906
1.09284
1.09313
1.08899
1.08425
1.07403
1.06192
1.04402
1.02519
1.00823
0.992085
0.974984
0.9576
0.943395
0.929205
0.915138
0.905408
0.898628
0.89365
0.889775
0.886597
0.883789
0.884896
0.883563
0.884845
0.884084
0.885994
0.885909
0.888724
0.888989
0.890467
0.889961
0.890762
0.890538
0.890808
0.890004
0.889975
0.889603
0.889656
0.887248
0.886994
0.883923
0.882005
0.880689
0.880717
0.880543
0.880758
0.880839
0.880745
0.881083
0.881154
0.880545
0.877708
0.876856
0.875011
0.87497
0.875732
0.87648
0.87871
0.881922
0.89708
0.921998
0.932185
0.930563
0.926265
0.926577
0.927097
0.927375
0.927606
0.929389
0.930501
0.932114
0.935418
0.938862
0.942174
0.945393
0.947843
0.948728
0.951056
0.955444
0.958065
0.955399
0.977665
0.971431
0.949601
0.99319
1.05107
0.965286
1.00324
1.09137
1.02393
0.996631
1.08397
1.03153
1.03613
1.09681
1.07599
1.07058
1.06087
1.04122
1.03329
1.02744
1.0319
1.03519
1.02312
1.01144
1.01159
1.02117
1.02146
1.01799
1.02031
1.01973
1.01767
1.01645
1.01882
1.02206
1.01776
1.00673
1.00196
0.989596
0.971795
0.961725
0.955908
0.952135
0.95428
0.956273
0.959665
0.955842
0.949521
0.943211
0.942788
0.946076
0.942623
0.935758
0.932522
0.937516
0.935662
0.934004
0.938496
0.922229
0.921917
0.918428
0.914391
0.932901
0.931352
0.942575
0.954032
0.957967
0.968986
0.975863
0.979619
0.984247
0.982941
1.00178
1.00078
1.01298
1.01049
1.02354
1.01796
1.02765
1.03285
1.04293
1.03209
1.00168
1.00559
1.04166
1.03697
1.03075
1.02989
1.02497
1.01679
1.01687
1.01848
1.01166
1.0062
1.00465
1.00456
1.00297
1.00174
1.00143
1.00014
1.00216
1.00038
1.00041
1.0001
1.00016
1.00013
1.00005
1.00005
1.00003
1.00008
1.00011
1.00019
1.00017
1.00037
1.00109
1.0011
1.00078
1.00172
1.00228
1.00265
1.00415
1.006
1.00536
1.00825
1.01565
1.01679
1.01697
1.02339
1.02279
1.01818
1.0088
0.995535
1.00455
1.02559
1.02785
1.03585
1.03607
1.03442
1.03363
1.03204
1.03134
1.03099
1.03168
1.03053
1.03177
1.03052
1.03141
1.03011
1.0303
1.02946
1.02903
1.02807
1.02711
1.02598
1.02473
1.02333
1.02139
1.01919
1.0172
1.01557
1.01458
1.01444
1.01484
1.01524
1.01487
1.01322
1.01319
1.01306
1.0144
1.01607
1.02014
1.02437
1.0275
1.02852
1.03001
1.03092
1.02493
1.0242
1.02438
1.03094
1.03039
1.02623
1.03181
1.04023
1.04168
1.03233
1.03161
1.03872
1.03953
1.03643
1.03379
1.02247
1.02868
1.03037
1.02857
1.02181
1.02057
1.01952
1.02039
1.01398
1.01283
1.01216
1.011
1.00968
1.00744
1.00636
1.00664
1.00477
1.00315
1.00217
1.00144
0.999212
0.996887
0.995646
0.994824
0.992938
0.990601
0.988566
0.986389
0.984318
0.982364
0.979937
0.977459
0.974869
0.971826
0.967677
0.964351
0.9608
0.958404
0.957088
0.955555
0.955513
0.955619
0.957621
0.957175
0.960917
0.960434
0.964234
0.965323
0.968996
0.970717
0.973265
0.974733
0.977504
0.978854
0.982307
0.983543
0.986289
0.987592
0.989912
0.99082
0.993284
0.993702
0.996257
0.996953
0.998974
1.00008
1.00244
1.00383
1.0065
1.00743
1.0104
1.01132
1.01412
1.01508
1.01763
1.01885
1.02156
1.02312
1.02594
1.02819
1.03126
1.03408
1.03727
1.04031
1.04371
1.04658
1.05038
1.0531
1.05749
1.06036
1.06506
1.06907
1.07313
1.07891
1.08283
1.08604
1.0892
1.09131
1.09127
1.0872
1.08361
1.07515
1.06274
1.04757
1.03068
1.0132
0.997216
0.980597
0.963994
0.94911
0.934537
0.919978
0.909042
0.901946
0.893987
0.890797
0.886654
0.883576
0.882095
0.882896
0.883161
0.883112
0.883845
0.885643
0.885632
0.887897
0.887888
0.889032
0.888191
0.889255
0.888723
0.888227
0.887976
0.887656
0.886749
0.885378
0.884121