/*--------------------------------*- C++ -*----------------------------------*\
| =========                 |                                                 |
| \\      /  F ield         | OpenFOAM: The Open Source CFD Toolbox           |
|  \\    /   O peration     | Version:  v2006                                 |
|   \\  /    A nd           | Website:  www.openfoam.com                      |
|    \\/     M anipulation  |                                                 |
\*---------------------------------------------------------------------------*/
FoamFile
{
    version     2.0;
    format      ascii;
    class       volVectorField;
    location    "25";
    object      U;
}
// * * * * * * * * * * * * * * * * * * * * * * * * * * * * * * * * * * * * * //

dimensions      [0 1 -1 0 0 0 0];


internalField   nonuniform List<vector> 
93840
(
(0.864569 0.0473291 7.0792e-17)
(0.869331 0.0445835 2.30568e-16)
(0.866592 0.0373061 3.51556e-16)
(0.860402 0.0393808 9.16716e-18)
(0.864126 0.0416048 1.4922e-16)
(0.86345 0.0354928 -1.57639e-16)
(0.863278 0.0360338 -1.19254e-16)
(0.861892 0.0350826 4.31023e-16)
(0.853416 0.0346186 -2.4567e-16)
(0.861062 0.035519 -1.09998e-16)
(0.850545 0.0318787 -1.10574e-16)
(0.855598 0.0297371 4.1844e-18)
(0.847734 0.0171733 2.99385e-17)
(0.833095 0.0192523 2.11538e-17)
(0.831959 0.0373725 2.9737e-17)
(0.847371 0.0330147 2.47484e-17)
(0.836571 -0.0103008 -6.45943e-18)
(0.774602 -0.0319212 -3.46182e-19)
(0.72273 0.00701861 -1.24104e-17)
(0.715538 0.0656294 -1.81618e-17)
(0.720676 0.106525 -2.12925e-17)
(0.751477 0.168934 -3.47466e-18)
(0.826311 0.225401 2.7726e-18)
(0.934384 0.22802 -1.74048e-17)
(0.950834 0.0447485 -5.48754e-17)
(0.242551 -0.373141 -5.96694e-17)
(0.197075 -0.314019 -7.96521e-17)
(0.154549 -0.0683832 -7.33601e-17)
(0.158512 -0.00450511 -3.10243e-17)
(0.25832 0.0583306 -1.98428e-17)
(0.33579 0.214844 -2.22506e-17)
(0.541798 0.227477 -2.14494e-17)
(0.488184 0.00715376 -1.80204e-17)
(0.44084 0.0445015 -1.98891e-17)
(0.333759 -0.0214895 -1.80079e-17)
(0.382998 0.00236605 -1.51991e-17)
(0.285135 -0.0146848 -2.15377e-17)
(0.336495 -0.0176487 -1.22575e-17)
(0.277591 -0.00712731 -1.89064e-17)
(0.287938 -0.020011 -1.38002e-17)
(0.258049 -0.0042016 -1.56865e-17)
(0.246678 -0.00917701 -1.16696e-17)
(0.231378 -0.00622804 -1.12356e-17)
(0.212748 -0.00554477 -1.22645e-17)
(0.196716 -0.00446149 -1.31467e-17)
(0.187046 -0.00552108 -1.1085e-17)
(0.172445 -0.00564372 -9.4756e-18)
(0.170646 -0.00503726 -1.05683e-17)
(0.154624 -0.00379979 -9.35728e-18)
(0.148212 -0.00326939 -1.51654e-17)
(0.142243 -0.00494061 -6.21102e-18)
(0.151599 -0.00425811 -1.21791e-17)
(0.148693 -0.0048211 -7.11278e-18)
(0.157703 -0.00191036 -1.32042e-17)
(0.143736 -0.00230777 -3.54325e-18)
(0.171577 -0.00198438 -1.71597e-17)
(0.171249 0.00103007 -4.35237e-18)
(0.182384 -0.00222447 1.94915e-18)
(0.176942 0.000436361 -1.671e-17)
(0.19216 0.00143476 -6.23672e-18)
(0.221941 0.00241321 -4.69127e-18)
(0.193499 0.00735699 -8.4626e-18)
(0.176195 0.00634861 -5.49042e-18)
(0.167945 0.00530191 -8.63182e-18)
(0.134741 0.00916325 -1.43736e-17)
(0.0878762 0.00424845 -8.61813e-18)
(0.0948514 0.00350174 -1.41816e-17)
(0.0906228 0.0041615 -2.31439e-17)
(0.0823427 0.00287125 -2.09945e-17)
(0.13301 0.00564491 -1.5515e-17)
(0.144636 0.00630825 -2.18411e-17)
(0.135005 0.0100265 -2.22131e-17)
(0.126545 0.00919502 -2.09944e-17)
(0.0924796 0.0101333 -2.37416e-17)
(0.0420392 0.00289749 -3.04862e-17)
(0.0587322 0.0015464 -3.38102e-17)
(0.0790803 0.00277282 -3.14683e-17)
(0.129448 0.011812 -3.3407e-17)
(0.146067 0.0167375 -3.25053e-17)
(0.0710195 0.0116489 -2.76846e-17)
(0.0334326 0.00210317 -2.16405e-17)
(0.0553512 0.00450031 -8.39213e-18)
(0.143165 0.0143488 -2.68736e-18)
(0.141444 0.0161806 5.32109e-19)
(0.0760168 0.00911068 -1.26489e-17)
(0.0695878 0.00791262 -2.20446e-17)
(0.113721 0.0117564 -3.72662e-17)
(0.163353 0.0169493 -5.54328e-17)
(0.1201 0.0150999 -6.80528e-17)
(0.102269 0.0121678 -7.47783e-17)
(0.179632 0.0255917 -6.63372e-17)
(0.18264 0.0218365 -5.72086e-17)
(0.150993 0.0205142 -4.26291e-17)
(0.197818 0.027868 -2.78219e-17)
(0.225072 0.0282754 -8.74796e-18)
(0.224102 0.0308616 2.4747e-19)
(0.234291 0.0358273 8.25486e-18)
(0.264777 0.0360277 -1.84055e-18)
(0.2862 0.0400679 -3.93343e-19)
(0.290079 0.0428447 -5.10315e-18)
(0.318743 0.0454626 -1.37838e-17)
(0.34051 0.0493856 -1.40088e-17)
(0.348139 0.0513817 -1.54232e-17)
(0.380092 0.0566219 -2.80356e-17)
(0.408746 0.0584421 -2.82076e-17)
(0.415581 0.0567266 -4.08401e-17)
(0.429962 0.0586033 -3.13811e-17)
(0.449726 0.0621123 -4.00332e-17)
(0.466263 0.0643051 -2.42618e-17)
(0.48959 0.0649468 -3.17071e-17)
(0.507173 0.0659275 -1.95739e-17)
(0.525478 0.0662922 -2.65086e-17)
(0.542898 0.0652254 -1.49476e-17)
(0.562734 0.066335 -1.98329e-17)
(0.581927 0.0641354 -9.96429e-18)
(0.603509 0.0625252 -1.52047e-17)
(0.624664 0.0606719 -1.53476e-17)
(0.651286 0.0581768 -2.16394e-17)
(0.676047 0.0545212 -2.50044e-17)
(0.697806 0.0503095 -3.3666e-17)
(0.716142 0.0444521 -3.88735e-17)
(0.734682 0.0394123 -4.59334e-17)
(0.745746 0.030936 -5.17121e-17)
(0.758846 0.0244768 -5.99856e-17)
(0.762408 0.013854 -6.54304e-17)
(0.762423 0.0086381 -7.45851e-17)
(0.772174 -9.08599e-05 -7.96745e-17)
(0.7639 -0.00718096 -8.7703e-17)
(0.769645 -0.0115304 -9.2415e-17)
(0.76828 -0.0204854 -9.91704e-17)
(0.762844 -0.0247918 -1.03549e-16)
(0.760446 -0.0310988 -1.09432e-16)
(0.754647 -0.0350148 -1.13627e-16)
(0.752792 -0.0395768 -1.20222e-16)
(0.750164 -0.0438112 -1.24479e-16)
(0.746995 -0.0488821 -1.33477e-16)
(0.741431 -0.0522247 -1.3776e-16)
(0.73953 -0.0557868 -1.46209e-16)
(0.735574 -0.0588633 -1.49806e-16)
(0.734915 -0.0622628 -1.56213e-16)
(0.733157 -0.0657767 -1.57583e-16)
(0.731817 -0.0698847 -1.61698e-16)
(0.727857 -0.0737521 -1.61032e-16)
(0.725977 -0.0763725 -1.60556e-16)
(0.724795 -0.0801124 -1.6016e-16)
(0.72388 -0.0837906 -1.59902e-16)
(0.722801 -0.0874088 -1.57957e-16)
(0.72236 -0.0918551 -1.57527e-16)
(0.719925 -0.0962803 -1.54998e-16)
(0.71741 -0.100343 -1.52665e-16)
(0.714635 -0.104295 -1.5009e-16)
(0.712934 -0.108997 -1.45563e-16)
(0.709804 -0.11319 -1.41309e-16)
(0.706977 -0.11798 -1.35308e-16)
(0.702798 -0.122164 -1.29848e-16)
(0.699165 -0.126874 -1.24421e-16)
(0.694224 -0.131673 -1.19155e-16)
(0.689334 -0.13651 -1.13586e-16)
(0.682649 -0.141318 -1.09318e-16)
(0.676088 -0.145223 -1.03788e-16)
(0.670581 -0.149469 -9.98932e-17)
(0.665658 -0.15535 -9.53699e-17)
(0.658329 -0.161375 -9.27838e-17)
(0.650459 -0.167798 -8.91049e-17)
(0.640989 -0.174195 -8.67757e-17)
(0.630396 -0.180744 -8.36361e-17)
(0.617605 -0.186423 -8.17859e-17)
(0.605348 -0.192123 -7.84708e-17)
(0.592632 -0.19841 -7.76038e-17)
(0.578138 -0.2069 -7.38006e-17)
(0.558281 -0.213792 -7.27271e-17)
(0.536122 -0.219708 -6.96927e-17)
(0.512459 -0.223723 -6.76889e-17)
(0.490027 -0.229087 -6.46531e-17)
(0.457787 -0.233319 -6.10566e-17)
(0.419454 -0.236186 -5.84849e-17)
(0.376029 -0.237163 -5.45311e-17)
(0.323665 -0.226921 -5.29175e-17)
(0.261368 -0.202162 -5.16415e-17)
(0.197095 -0.170371 -5.29578e-17)
(0.131997 -0.125905 -5.91944e-17)
(0.0333153 0.00680658 -1.15482e-16)
(0.00611508 0.129955 3.43617e-17)
(0.000716232 0.359892 8.14007e-17)
(0.074197 0.501617 8.19061e-17)
(0.19589 0.689368 8.165e-17)
(0.449404 0.748168 7.85934e-17)
(0.594077 0.766126 7.63519e-17)
(0.716097 0.696613 7.20928e-17)
(0.761009 0.661447 6.98765e-17)
(0.869126 0.658969 6.65033e-17)
(0.950023 0.626932 6.39868e-17)
(1.00865 0.584256 6.11648e-17)
(1.04862 0.541025 5.87502e-17)
(1.09838 0.512084 5.57161e-17)
(1.10875 0.472663 5.40192e-17)
(1.11943 0.441232 5.09875e-17)
(1.12213 0.411258 4.88715e-17)
(1.12584 0.38743 4.5319e-17)
(1.11945 0.361686 4.23146e-17)
(1.11661 0.342458 3.88965e-17)
(1.10525 0.321783 3.59436e-17)
(1.10307 0.305841 3.26094e-17)
(1.09101 0.289265 2.85825e-17)
(1.08769 0.27449 2.43902e-17)
(1.06913 0.259334 1.91216e-17)
(1.06714 0.250336 1.42571e-17)
(1.0482 0.235549 8.17841e-18)
(1.04578 0.226255 1.14101e-18)
(1.03001 0.214148 -6.51143e-18)
(1.03169 0.206685 -1.48663e-17)
(1.0209 0.19567 -2.35996e-17)
(1.02059 0.18839 -3.41556e-17)
(1.00729 0.17799 -4.51252e-17)
(1.00967 0.171803 -5.75352e-17)
(0.997541 0.16239 -6.98904e-17)
(1.00093 0.155749 -8.39514e-17)
(0.989296 0.151286 -9.80834e-17)
(0.997893 0.146811 -1.13108e-16)
(0.989544 0.138944 -1.28358e-16)
(0.999631 0.131588 -1.43745e-16)
(0.99163 0.123013 -1.59222e-16)
(0.995682 0.118653 -1.7404e-16)
(0.979603 0.111916 -1.88071e-16)
(0.980089 0.107226 -2.02059e-16)
(0.963978 0.101831 -2.14495e-16)
(0.964422 0.0975226 -2.28333e-16)
(0.949302 0.0925102 -2.40262e-16)
(0.948843 0.0883976 -2.52231e-16)
(0.934074 0.0841058 -2.63022e-16)
(0.938878 0.0803985 -2.73752e-16)
(0.937225 0.073984 -2.8252e-16)
(0.938737 0.0680154 -2.88648e-16)
(0.932579 0.0621614 -2.93089e-16)
(0.927675 0.0566895 -2.94471e-16)
(0.912201 0.0523689 -2.946e-16)
(0.901333 0.047678 -2.90133e-16)
(0.882336 0.0434267 -2.84166e-16)
(0.853969 0.0408081 -2.73313e-16)
(0.775695 0.0323315 -2.60466e-16)
(0.663531 0.0252044 -2.43394e-16)
(0.598489 0.0182232 -2.24643e-16)
(0.611108 0.0168417 -2.06748e-16)
(0.64036 0.0128939 -1.89674e-16)
(0.635699 0.0119797 -1.74929e-16)
(0.632713 0.00825847 -1.64096e-16)
(0.63153 0.00536573 -1.54366e-16)
(0.624451 0.00271528 -1.48357e-16)
(0.609649 0.000169685 -1.4041e-16)
(0.607509 -0.00199477 -1.30848e-16)
(0.589729 -0.00577754 -1.17961e-16)
(0.569532 -0.00971282 -1.03983e-16)
(0.540724 -0.0103045 -8.41253e-17)
(0.511075 -0.0135205 -6.60437e-17)
(0.501332 -0.0165326 -4.42197e-17)
(0.473222 -0.0164628 -2.26621e-17)
(0.445076 -0.0209663 -7.84502e-18)
(0.443873 -0.0213967 3.57522e-18)
(0.418584 -0.0227807 7.57782e-18)
(0.362966 -0.0257741 5.92226e-18)
(0.366169 -0.0237084 -1.19015e-17)
(0.350465 -0.0243002 -2.73767e-17)
(0.251156 -0.0161433 -5.21121e-17)
(0.241411 -0.0241687 -4.53081e-17)
(0.253877 -0.0226625 -4.63526e-17)
(0.157783 -0.011622 -5.38342e-17)
(0.102291 -0.00981921 8.89011e-18)
(0.138805 -0.0118679 -1.66316e-17)
(0.0941996 -0.0117932 -5.77982e-17)
(-0.0067024 -0.00401257 -6.06827e-17)
(0.0226411 -0.0077366 -4.177e-17)
(0.0420318 -0.00575319 -2.89784e-17)
(-0.0617081 0.0106889 -3.29828e-17)
(-0.0412843 0.00618481 -5.10018e-17)
(-0.0120737 0.00207589 -5.81491e-17)
(-0.0572054 0.00912591 -5.94098e-17)
(-0.0603914 0.00633962 -5.37196e-17)
(-0.0261257 0.00523713 -5.85603e-17)
(-0.0543168 0.00580764 -4.62986e-17)
(-0.0750902 0.0120031 -5.18734e-17)
(-0.0751654 0.0119734 -4.75261e-17)
(-0.032922 0.00144825 -5.26727e-17)
(-0.00455843 0.0032247 -7.0879e-17)
(-0.0932359 0.0227278 -7.687e-17)
(-0.166136 0.0245977 -8.47962e-17)
(-0.15762 0.0265942 -9.251e-17)
(-0.0940478 0.00942849 -9.87417e-17)
(0.00296182 -0.00531339 -9.8262e-17)
(0.0903909 -0.0182829 -8.40595e-17)
(0.183857 -0.035706 -9.30986e-17)
(0.276933 -0.050356 -8.11104e-17)
(0.311245 -0.050237 -7.9706e-17)
(0.302126 -0.0492105 -7.78491e-17)
(0.309957 -0.0524648 -6.45625e-17)
(0.341597 -0.0608385 -6.98736e-17)
(0.342372 -0.057651 -7.62648e-17)
(0.270303 -0.0524737 -8.09336e-17)
(0.235187 -0.0436215 -8.62542e-17)
(0.194765 -0.0315297 -8.64556e-17)
(0.0652749 -0.00106656 -4.41139e-17)
(-0.147773 0.0447123 -4.05101e-17)
(-0.240636 0.0571756 -4.38701e-17)
(-0.334974 0.0639533 -5.09146e-17)
(-0.318669 0.0589414 -4.7382e-17)
(-0.381811 0.0745525 -3.49168e-17)
(-0.402906 0.0746501 -4.92655e-17)
(-0.468806 0.0910588 -3.26377e-17)
(-0.531901 0.105499 -4.72121e-17)
(-0.60883 0.123355 -3.81063e-17)
(-0.673835 0.136954 -4.6761e-17)
(-0.718514 0.142896 -4.53358e-17)
(-0.752417 0.144122 -5.52003e-17)
(-0.758204 0.14513 -5.50668e-17)
(-0.786187 0.151143 -5.47338e-17)
(-0.791117 0.158508 -5.34415e-17)
(-0.839841 0.170138 -5.55512e-17)
(-0.849608 0.172002 -6.28666e-17)
(-0.8802 0.176826 -6.28059e-17)
(-0.872252 0.172774 -6.59698e-17)
(-0.87791 0.171776 -5.70679e-17)
(-0.865279 0.164263 -6.59059e-17)
(-0.843701 0.16079 -5.84956e-17)
(-0.827003 0.149491 -7.24775e-17)
(-0.777003 0.150387 -6.31427e-17)
(-0.773709 0.142019 -7.3844e-17)
(-0.702651 0.137841 -6.29758e-17)
(-0.715737 0.136948 -6.74219e-17)
(-0.633454 0.122362 -6.24337e-17)
(-0.618567 0.123619 -5.80224e-17)
(-0.555388 0.105983 -5.94087e-17)
(-0.492074 0.092165 -4.44873e-17)
(-0.472437 0.068591 -5.02389e-17)
(-0.335631 0.0434412 -3.11178e-17)
(-0.391747 0.0435966 -3.33087e-17)
(-0.204619 0.0857818 -1.40838e-17)
(-0.449114 0.186033 -8.75481e-18)
(-0.0198469 0.570723 -1.7273e-17)
(-0.0253791 0.346834 -1.50134e-17)
(0.0335028 0.155801 -6.1606e-17)
(-0.0320234 0.0490193 -7.78388e-17)
(0.0611299 -0.0650694 -8.10786e-17)
(0.091175 -0.304032 -6.4028e-17)
(0.0147448 -0.3731 -3.52871e-17)
(0.906226 0.0129581 -5.56546e-17)
(0.910444 0.220548 -2.3511e-17)
(0.817799 0.228519 -1.87282e-18)
(0.746615 0.170042 -4.2944e-18)
(0.718052 0.106626 -2.33496e-17)
(0.714715 0.0663319 -1.83512e-17)
(0.721447 0.00856613 -7.54522e-18)
(0.774575 -0.0335282 1.04686e-17)
(0.836655 -0.0123109 7.45711e-19)
(0.847402 0.0322499 2.41299e-17)
(0.83201 0.0372272 3.21634e-17)
(0.83317 0.0192425 5.75612e-17)
(0.847595 0.0170934 8.71643e-17)
(0.855532 0.0297139 2.92441e-17)
(0.857881 0.0308179 3.48113e-16)
(0.860256 0.0348951 -4.46428e-16)
(0.856144 0.0346084 3.33753e-16)
(0.860176 0.0349663 -2.77427e-16)
(0.856228 0.0378916 -4.05277e-16)
(0.862923 0.035427 5.72456e-16)
(0.864382 0.0420176 -1.0855e-16)
(0.86036 0.0389872 1.10336e-16)
(0.866575 0.0374026 -3.25837e-16)
(0.869327 0.044765 9.47179e-17)
(0.864563 0.0474886 4.46961e-17)
(0.864564 0.0474908 4.47511e-17)
(0.869323 0.0448267 1.30162e-16)
(0.866581 0.0374152 -3.47038e-16)
(0.860369 0.0390311 9.8812e-17)
(0.864388 0.0420005 -7.45139e-17)
(0.863151 0.0353823 2.4197e-16)
(0.854902 0.0381353 -5.80538e-16)
(0.860616 0.0348927 -1.91883e-16)
(0.855356 0.0347892 3.62697e-16)
(0.860737 0.0351971 -1.98544e-17)
(0.855791 0.0312075 3.09932e-16)
(0.855557 0.0297957 -1.42948e-17)
(0.847762 0.0173033 5.9693e-17)
(0.833091 0.0190621 4.42571e-17)
(0.831942 0.0375117 3.7896e-17)
(0.847361 0.033981 1.69427e-17)
(0.837037 -0.00832686 1.60141e-18)
(0.774795 -0.0303289 1.8613e-17)
(0.723835 0.0087933 -7.77842e-18)
(0.71698 0.0643196 -2.14295e-17)
(0.723714 0.106175 -2.2318e-17)
(0.756252 0.166475 -2.22356e-18)
(0.836629 0.221418 3.24226e-18)
(0.965788 0.228989 -1.45512e-17)
(1.03615 0.069533 -5.26082e-17)
(0.46905 -0.359239 -7.58291e-17)
(0.296674 -0.278663 -7.14214e-17)
(0.255761 -0.0801082 -4.07997e-17)
(0.216134 -0.0365387 -2.53523e-17)
(0.233706 0.0394074 -2.83612e-17)
(0.26467 0.175224 -2.46396e-17)
(0.414404 0.162078 -2.51712e-17)
(0.390809 0.051231 -2.10189e-17)
(0.390962 0.0193462 -2.45558e-17)
(0.397794 0.016706 -1.70921e-17)
(0.358167 -0.0122752 -2.49553e-17)
(0.382824 0.00943418 -1.72286e-17)
(0.332078 -0.0122376 -1.96379e-17)
(0.350232 0.0077305 -1.8801e-17)
(0.316424 -0.00316461 -1.66835e-17)
(0.311384 0.00379289 -1.73153e-17)
(0.288496 0.00458344 -1.61348e-17)
(0.276165 0.00518759 -1.71341e-17)
(0.257968 0.00639202 -1.71224e-17)
(0.245084 0.00520195 -1.72451e-17)
(0.232681 0.00465541 -1.68852e-17)
(0.219989 0.00450111 -1.76922e-17)
(0.209805 0.00556928 -1.96116e-17)
(0.197027 0.00540475 -2.10329e-17)
(0.191103 0.00193163 -2.08965e-17)
(0.189469 -0.00226708 -1.6497e-17)
(0.194128 -0.00279013 -1.67e-17)
(0.194186 -0.00157013 -1.96214e-17)
(0.187988 0.00145572 -1.59216e-17)
(0.189371 -0.00412158 -1.41266e-17)
(0.200301 -0.00711751 -1.39857e-17)
(0.211753 -0.00222559 -1.16716e-17)
(0.21032 0.00162709 -3.00242e-18)
(0.203661 -0.000291612 -3.02703e-17)
(0.232758 -0.00851027 -4.96601e-18)
(0.245326 0.00508847 -7.97508e-18)
(0.220255 0.015147 -1.45564e-17)
(0.20678 0.00995317 -1.35904e-17)
(0.194609 0.0170506 -1.46127e-17)
(0.155592 0.018921 -2.18204e-17)
(0.115522 0.0121734 -2.23773e-17)
(0.117281 0.0029287 -2.68846e-17)
(0.108995 0.00785076 -2.81508e-17)
(0.110363 -0.00148666 -2.15693e-17)
(0.157086 -0.00237964 -2.6311e-17)
(0.168618 0.00892828 -3.23492e-17)
(0.159006 0.0116472 -3.30839e-17)
(0.153807 0.016255 -3.32906e-17)
(0.11419 0.0194311 -3.97631e-17)
(0.066297 0.010872 -3.9341e-17)
(0.0799848 0.0026474 -4.22042e-17)
(0.10247 -0.000211903 -4.20708e-17)
(0.163271 0.00371057 -4.0548e-17)
(0.173595 0.0219785 -3.1581e-17)
(0.095938 0.0233643 -2.18522e-17)
(0.0594468 0.00671144 -1.29242e-17)
(0.0874842 -0.00476357 -5.70041e-18)
(0.179747 0.0109686 -3.97528e-18)
(0.175504 0.0259325 -1.33914e-17)
(0.110737 0.0190427 -3.19889e-17)
(0.107282 0.00583536 -4.85207e-17)
(0.158731 0.00988525 -6.19902e-17)
(0.213008 0.0266188 -7.42268e-17)
(0.167092 0.0247248 -7.99701e-17)
(0.155357 0.0110573 -7.5222e-17)
(0.239872 0.0228254 -6.86295e-17)
(0.240947 0.0368007 -5.23642e-17)
(0.211389 0.0240791 -2.41868e-17)
(0.263458 0.0289347 -1.45789e-17)
(0.293531 0.0399892 1.64041e-18)
(0.29384 0.0413196 1.46065e-18)
(0.304523 0.0371144 3.21291e-18)
(0.335617 0.0448778 -2.88609e-18)
(0.35917 0.0507096 -5.90995e-18)
(0.3606 0.0488701 -1.85143e-17)
(0.387795 0.0525766 -1.4443e-17)
(0.410973 0.0574833 -2.31582e-17)
(0.417165 0.0584432 -3.32795e-17)
(0.45024 0.0638955 -3.47464e-17)
(0.479377 0.0673921 -3.85859e-17)
(0.486155 0.0643436 -3.96989e-17)
(0.50283 0.0664693 -3.64946e-17)
(0.524159 0.0713697 -3.81848e-17)
(0.54163 0.0713467 -3.11519e-17)
(0.56642 0.0741612 -3.29938e-17)
(0.585624 0.0741627 -2.24878e-17)
(0.60534 0.073986 -2.52386e-17)
(0.624461 0.0745159 -1.55075e-17)
(0.646182 0.0736452 -1.87169e-17)
(0.666841 0.0720375 -1.27084e-17)
(0.690344 0.0700688 -1.89722e-17)
(0.713128 0.0664801 -1.85871e-17)
(0.74064 0.0650122 -2.6481e-17)
(0.766079 0.0596112 -3.10979e-17)
(0.788097 0.055264 -4.04114e-17)
(0.806382 0.0482704 -4.5591e-17)
(0.82483 0.043215 -5.65028e-17)
(0.835268 0.0332442 -6.13063e-17)
(0.847791 0.0271529 -7.19406e-17)
(0.850509 0.0151926 -7.749e-17)
(0.850786 0.00907022 -8.75427e-17)
(0.85931 -0.000839055 -9.30874e-17)
(0.850733 -0.00827784 -1.01728e-16)
(0.856091 -0.0137428 -1.06674e-16)
(0.85313 -0.0233123 -1.14023e-16)
(0.84756 -0.027912 -1.18785e-16)
(0.844356 -0.035288 -1.25382e-16)
(0.838259 -0.0391417 -1.304e-16)
(0.835772 -0.0446917 -1.37429e-16)
(0.832394 -0.0491631 -1.43255e-16)
(0.828478 -0.0547577 -1.51495e-16)
(0.822654 -0.0583379 -1.57216e-16)
(0.820271 -0.0624096 -1.65549e-16)
(0.815874 -0.065664 -1.68401e-16)
(0.814821 -0.0697012 -1.74402e-16)
(0.812232 -0.0735497 -1.74627e-16)
(0.810293 -0.0780441 -1.77167e-16)
(0.805876 -0.08157 -1.75797e-16)
(0.803618 -0.085156 -1.76644e-16)
(0.801796 -0.0886545 -1.74999e-16)
(0.800317 -0.0926619 -1.75133e-16)
(0.798439 -0.0967431 -1.7258e-16)
(0.79709 -0.101132 -1.71919e-16)
(0.793777 -0.1061 -1.6753e-16)
(0.790599 -0.110094 -1.65826e-16)
(0.78687 -0.114357 -1.59529e-16)
(0.784305 -0.118858 -1.55785e-16)
(0.780008 -0.123631 -1.48215e-16)
(0.776198 -0.128571 -1.4304e-16)
(0.770768 -0.133325 -1.35935e-16)
(0.765981 -0.13822 -1.30166e-16)
(0.759664 -0.14302 -1.23847e-16)
(0.753523 -0.148092 -1.18478e-16)
(0.745546 -0.152829 -1.12123e-16)
(0.737811 -0.157062 -1.07745e-16)
(0.730362 -0.161023 -1.02066e-16)
(0.723034 -0.166542 -9.77876e-17)
(0.71308 -0.172311 -9.26105e-17)
(0.702622 -0.177603 -8.86634e-17)
(0.689988 -0.183221 -8.33922e-17)
(0.676312 -0.188472 -7.93439e-17)
(0.660095 -0.193175 -7.42854e-17)
(0.644095 -0.197133 -7.07622e-17)
(0.626179 -0.201426 -6.35763e-17)
(0.606598 -0.206738 -6.05637e-17)
(0.581823 -0.211021 -5.29528e-17)
(0.555751 -0.213189 -4.98745e-17)
(0.526565 -0.213497 -4.1811e-17)
(0.496694 -0.214122 -3.75388e-17)
(0.458971 -0.214421 -3.12756e-17)
(0.419318 -0.210847 -2.82718e-17)
(0.368481 -0.202371 -2.27103e-17)
(0.317377 -0.189984 -1.94784e-17)
(0.26188 -0.166011 -1.22138e-17)
(0.205001 -0.121771 -1.6098e-17)
(0.143979 -0.0587086 -5.47831e-18)
(0.0890958 0.0362783 -2.12441e-17)
(0.0725987 0.161868 1.45861e-16)
(0.0624798 0.299302 1.40405e-16)
(0.173873 0.429984 1.12811e-16)
(0.269119 0.582124 9.47406e-17)
(0.422403 0.633251 8.33981e-17)
(0.588136 0.669124 7.33521e-17)
(0.713156 0.64679 6.65791e-17)
(0.776443 0.633784 6.39548e-17)
(0.876594 0.635519 6.16098e-17)
(0.961643 0.610284 5.90066e-17)
(1.03544 0.581622 5.74444e-17)
(1.08274 0.54908 5.58032e-17)
(1.1449 0.522601 5.47247e-17)
(1.16498 0.489861 5.36139e-17)
(1.18797 0.46193 5.19443e-17)
(1.19733 0.435922 4.8766e-17)
(1.21125 0.413549 4.67189e-17)
(1.21086 0.386964 4.37644e-17)
(1.21494 0.370798 4.02478e-17)
(1.20593 0.352802 3.69022e-17)
(1.20869 0.337677 3.38053e-17)
(1.19796 0.319597 2.96302e-17)
(1.19899 0.307583 2.48671e-17)
(1.18206 0.290858 1.96618e-17)
(1.18366 0.279229 1.40266e-17)
(1.16377 0.264711 8.74003e-18)
(1.16361 0.254606 5.10945e-19)
(1.14589 0.24157 -6.9467e-18)
(1.14925 0.231574 -1.62769e-17)
(1.13585 0.221245 -2.37251e-17)
(1.13782 0.212069 -3.5093e-17)
(1.12175 0.200558 -4.57663e-17)
(1.12595 0.19313 -5.92678e-17)
(1.11084 0.183212 -7.10359e-17)
(1.11631 0.178756 -8.67339e-17)
(1.10278 0.166484 -1.00875e-16)
(1.1126 0.161183 -1.17054e-16)
(1.10098 0.152361 -1.32472e-16)
(1.11312 0.14599 -1.49691e-16)
(1.10238 0.137993 -1.65633e-16)
(1.11021 0.133116 -1.82386e-16)
(1.09162 0.125792 -1.9723e-16)
(1.09577 0.12169 -2.13259e-16)
(1.07668 0.114972 -2.28201e-16)
(1.08061 0.111387 -2.43066e-16)
(1.06209 0.10507 -2.57222e-16)
(1.06539 0.101334 -2.71553e-16)
(1.04705 0.0954124 -2.84079e-16)
(1.05456 0.0918219 -2.96286e-16)
(1.04847 0.0840326 -3.06301e-16)
(1.05418 0.0789306 -3.15817e-16)
(1.04446 0.0716014 -3.21503e-16)
(1.04456 0.0659166 -3.27125e-16)
(1.02593 0.0601108 -3.26621e-16)
(1.01904 0.0561616 -3.25433e-16)
(0.997804 0.051389 -3.19588e-16)
(0.973524 0.0475149 -3.10721e-16)
(0.899377 0.0449885 -2.97702e-16)
(0.788261 0.0374479 -2.80086e-16)
(0.714088 0.0266456 -2.57822e-16)
(0.714543 0.0172369 -2.39234e-16)
(0.73822 0.0161595 -2.21166e-16)
(0.730738 0.0134297 -2.03869e-16)
(0.725799 0.00967755 -1.90534e-16)
(0.72322 0.00841996 -1.77804e-16)
(0.714656 0.00119427 -1.70485e-16)
(0.699209 0.00131872 -1.6233e-16)
(0.695926 -0.00109212 -1.52781e-16)
(0.67737 -0.00749814 -1.40372e-16)
(0.657179 -0.00607344 -1.2616e-16)
(0.626908 -0.0111856 -1.05947e-16)
(0.594909 -0.0137186 -8.63364e-17)
(0.583953 -0.017274 -6.39517e-17)
(0.551663 -0.0191983 -3.62769e-17)
(0.521092 -0.019787 -2.08757e-17)
(0.5202 -0.0257131 -2.05219e-18)
(0.492668 -0.0235721 2.38354e-18)
(0.434828 -0.0210982 1.33396e-17)
(0.441859 -0.0297003 -6.39398e-18)
(0.425558 -0.0235332 -1.71611e-17)
(0.321715 -0.0213466 -4.8307e-17)
(0.315369 -0.0215038 -5.64092e-17)
(0.332029 -0.0231663 -5.31538e-17)
(0.22799 -0.0108278 -7.4168e-17)
(0.167095 -0.0167662 -3.69594e-17)
(0.202748 -0.0208871 -5.81594e-18)
(0.1528 -0.00975987 -4.79981e-17)
(0.0315097 0.00794728 -7.68149e-17)
(0.057126 -0.00939679 -6.51147e-17)
(0.0603346 -0.00224036 -3.9929e-17)
(-0.0438834 0.0152305 -3.56859e-17)
(-0.0421571 -0.00174514 -3.996e-17)
(-0.0074345 0.00112681 -5.21521e-17)
(-0.0458241 0.00933777 -7.14496e-17)
(-0.0740465 0.00517119 -5.97691e-17)
(-0.0413273 0.0030639 -5.34703e-17)
(-0.0485892 0.0106315 -5.36492e-17)
(-0.0827129 0.0148375 -6.26204e-17)
(-0.0807764 0.00716392 -6.98775e-17)
(-0.0465403 0.00268693 -6.82862e-17)
(-0.0282316 0.00776972 -7.72537e-17)
(-0.0782219 0.025852 -8.87989e-17)
(-0.148308 0.0306794 -9.23364e-17)
(-0.173064 0.0193959 -8.75633e-17)
(-0.106957 0.00152745 -9.5882e-17)
(-0.0133761 -0.0199893 -9.55066e-17)
(0.0779742 -0.0372597 -9.30991e-17)
(0.175543 -0.0534414 -9.61601e-17)
(0.262099 -0.0616229 -9.23278e-17)
(0.305836 -0.0556073 -9.18501e-17)
(0.308187 -0.0517954 -8.17389e-17)
(0.311876 -0.0582668 -7.36012e-17)
(0.33321 -0.0579785 -8.29646e-17)
(0.318372 -0.0433047 -8.75207e-17)
(0.239898 -0.0161006 -9.73278e-17)
(0.174616 -0.0108439 -9.26311e-17)
(0.0391534 0.0255143 -5.90372e-17)
(-0.160507 0.0944584 -4.38253e-17)
(-0.326611 0.11109 -6.453e-17)
(-0.36741 0.0923136 -5.52891e-17)
(-0.437429 0.0939058 -5.43801e-17)
(-0.456611 0.0961073 -4.68376e-17)
(-0.506559 0.114886 -5.42933e-17)
(-0.541194 0.126143 -4.90799e-17)
(-0.622324 0.151198 -5.39225e-17)
(-0.678236 0.163231 -5.90763e-17)
(-0.754234 0.175042 -5.67043e-17)
(-0.797385 0.171698 -6.80216e-17)
(-0.832374 0.1705 -7.07005e-17)
(-0.849817 0.167594 -7.79966e-17)
(-0.866428 0.171989 -7.28517e-17)
(-0.879007 0.177265 -7.31844e-17)
(-0.894417 0.187609 -7.3104e-17)
(-0.912124 0.191321 -8.19865e-17)
(-0.936489 0.192002 -8.75681e-17)
(-0.940208 0.193255 -9.34039e-17)
(-0.954898 0.19477 -8.56699e-17)
(-0.935476 0.194903 -8.6349e-17)
(-0.932444 0.182289 -8.52248e-17)
(-0.906706 0.177085 -9.0118e-17)
(-0.884665 0.166685 -9.18846e-17)
(-0.854213 0.161763 -8.71319e-17)
(-0.83531 0.153916 -8.72066e-17)
(-0.797585 0.141964 -7.57619e-17)
(-0.799808 0.135328 -9.10856e-17)
(-0.754335 0.113079 -8.20516e-17)
(-0.743757 0.110762 -9.45572e-17)
(-0.716355 0.0814015 -8.16984e-17)
(-0.682795 0.09206 -7.99337e-17)
(-0.682289 0.0570141 -6.62375e-17)
(-0.632213 0.0911391 -5.78551e-17)
(-0.679235 0.0904452 -6.56911e-17)
(-0.599894 0.162211 -4.75471e-17)
(-0.582637 0.227442 -5.83943e-17)
(-0.39753 0.333994 -4.8932e-17)
(-0.261064 0.286485 -6.40307e-17)
(-0.16981 0.118809 -8.98683e-17)
(-0.140714 0.0087578 -8.78922e-17)
(-0.0395047 -0.0964404 -8.58043e-17)
(-0.0161759 -0.32287 -7.28556e-17)
(-0.0649292 -0.431599 -4.38224e-17)
(0.7299 -0.0278447 -5.74693e-17)
(0.863811 0.231546 -2.72782e-17)
(0.799326 0.235597 -3.16973e-18)
(0.738436 0.17349 -3.66374e-18)
(0.714181 0.107541 -1.96924e-17)
(0.712673 0.0666358 -1.73661e-17)
(0.719797 0.00686215 -1.18661e-17)
(0.773288 -0.0354376 3.0069e-18)
(0.836921 -0.0146237 -9.89892e-18)
(0.8476 0.0314446 2.26798e-17)
(0.831972 0.0370464 2.27669e-17)
(0.833087 0.0193867 3.26102e-17)
(0.847676 0.0169955 1.1963e-17)
(0.855545 0.0296333 3.53665e-17)
(0.850996 0.0317609 -7.10903e-17)
(0.864038 0.0352772 3.17623e-16)
(0.854053 0.0344778 -8.21587e-17)
(0.863057 0.0348392 3.71327e-16)
(0.859751 0.0367249 -3.27203e-16)
(0.863692 0.0354695 -2.30101e-16)
(0.864099 0.0415826 2.208e-17)
(0.860401 0.0393408 6.37029e-17)
(0.866605 0.0372936 2.90253e-16)
(0.869334 0.0445398 2.48698e-16)
(0.864568 0.0472847 7.01043e-17)
(0.864565 0.0473046 6.98275e-17)
(0.869329 0.0444504 2.27219e-16)
(0.866591 0.0373199 3.91764e-16)
(0.860405 0.0393901 -2.4652e-18)
(0.864102 0.0416316 1.60051e-16)
(0.863615 0.0354749 -1.22492e-16)
(0.86286 0.0361228 -1.26897e-16)
(0.861595 0.035139 5.10209e-16)
(0.854697 0.0342726 -1.02843e-16)
(0.860374 0.0355845 1.42935e-16)
(0.850443 0.0318608 -2.1253e-16)
(0.855478 0.0298828 3.70388e-17)
(0.847629 0.0174338 8.41679e-17)
(0.833208 0.0188713 2.50098e-17)
(0.832051 0.0375799 4.0189e-17)
(0.847265 0.0347482 2.90774e-17)
(0.83668 -0.00682296 -4.05813e-18)
(0.775504 -0.0293712 5.69919e-18)
(0.724844 0.00881118 -1.22836e-17)
(0.718736 0.0650015 -1.84433e-17)
(0.726984 0.105418 -2.32682e-17)
(0.761523 0.164838 -2.5306e-18)
(0.846836 0.218183 7.06926e-18)
(0.986408 0.227229 -4.45736e-18)
(1.07334 0.0677342 -4.48081e-17)
(0.5757 -0.336978 -6.84262e-17)
(0.380337 -0.243673 -4.95854e-17)
(0.343894 -0.0571407 -2.44723e-17)
(0.303581 -0.015429 -2.9077e-17)
(0.315704 0.0152022 -3.65675e-17)
(0.333637 0.0494839 -3.32268e-17)
(0.422451 0.0494581 -3.35622e-17)
(0.452579 0.0208697 -3.05432e-17)
(0.436267 0.0253747 -3.11426e-17)
(0.441629 0.000831266 -2.81504e-17)
(0.420626 0.00789991 -2.47275e-17)
(0.423925 -0.00184273 -2.56131e-17)
(0.401763 0.00775251 -2.23681e-17)
(0.391862 0.00343162 -2.81117e-17)
(0.3836 0.00786952 -2.54131e-17)
(0.361907 0.0109169 -3.33055e-17)
(0.354874 0.0121084 -3.25139e-17)
(0.343189 0.012862 -4.10552e-17)
(0.327752 0.0133568 -4.27023e-17)
(0.315622 0.010067 -4.79006e-17)
(0.305638 0.00644354 -4.82637e-17)
(0.292251 0.00780422 -4.9692e-17)
(0.285747 0.00788047 -4.97778e-17)
(0.275615 0.00905306 -4.87869e-17)
(0.269209 0.00173466 -4.97673e-17)
(0.262621 -0.00533298 -3.60991e-17)
(0.263792 -0.00367164 -3.67963e-17)
(0.260044 0.000543086 -4.14246e-17)
(0.25079 0.00470307 -2.84986e-17)
(0.252242 -0.00324536 -3.97462e-17)
(0.251227 -0.00922288 -2.5997e-17)
(0.262628 -0.00143425 -3.29056e-17)
(0.254995 0.0029879 -1.25092e-17)
(0.244444 -0.00813544 -5.21682e-17)
(0.269248 -0.0147419 3.77655e-19)
(0.274602 0.00965474 -1.60255e-17)
(0.255092 0.0216535 -3.69924e-17)
(0.244813 0.0174802 -2.10309e-17)
(0.222875 0.0245455 -2.51221e-17)
(0.192991 0.0358534 -3.82216e-17)
(0.153969 0.0158042 -4.26069e-17)
(0.147142 0.0079599 -3.33711e-17)
(0.145863 0.00895182 -3.9715e-17)
(0.144207 -0.00779476 -4.27515e-17)
(0.1839 -0.00904098 -4.51146e-17)
(0.196586 0.00922279 -3.33815e-17)
(0.187737 0.0167323 -3.9404e-17)
(0.182114 0.0256392 -4.39278e-17)
(0.144118 0.0327895 -4.60087e-17)
(0.0970238 0.0144877 -4.79341e-17)
(0.11126 0.000578333 -5.30918e-17)
(0.134441 -0.00772095 -4.46028e-17)
(0.188888 0.00142179 -4.12186e-17)
(0.198052 0.031411 -2.7429e-17)
(0.127517 0.0363647 -1.5986e-17)
(0.0893322 0.0105185 -1.97338e-17)
(0.121419 -0.0113117 -1.1691e-17)
(0.209167 0.00392279 -7.45757e-18)
(0.204305 0.0362356 -2.8327e-17)
(0.146813 0.0290161 -4.78816e-17)
(0.144932 0.00920388 -6.15623e-17)
(0.1993 0.00407737 -6.94743e-17)
(0.251201 0.0278872 -8.11959e-17)
(0.208014 0.0350921 -6.43877e-17)
(0.200748 0.0173668 -5.41588e-17)
(0.286358 0.0236845 -5.4171e-17)
(0.288532 0.0414182 -2.49054e-17)
(0.261697 0.0331449 -1.70739e-18)
(0.317346 0.0340232 -7.12382e-19)
(0.348708 0.041832 5.15639e-18)
(0.349046 0.0472249 -4.06715e-19)
(0.362259 0.0480373 -4.34235e-18)
(0.396052 0.0489529 -5.224e-18)
(0.41854 0.0558579 -1.82995e-17)
(0.421928 0.0589351 -2.25964e-17)
(0.45005 0.0591602 -2.55288e-17)
(0.47414 0.0654765 -2.82531e-17)
(0.482243 0.067022 -3.43178e-17)
(0.515851 0.0709355 -3.49287e-17)
(0.545393 0.0745798 -4.0814e-17)
(0.553115 0.0732105 -3.77405e-17)
(0.570552 0.0739361 -4.01906e-17)
(0.592403 0.0785543 -3.50823e-17)
(0.610512 0.0801814 -3.48568e-17)
(0.635997 0.0807068 -3.03892e-17)
(0.655805 0.081859 -2.36074e-17)
(0.676287 0.0819331 -2.28028e-17)
(0.696233 0.0804286 -1.70244e-17)
(0.718142 0.081165 -1.84703e-17)
(0.739424 0.0780932 -1.87488e-17)
(0.76301 0.0756279 -2.18338e-17)
(0.785711 0.0726906 -2.60519e-17)
(0.812899 0.069055 -3.39916e-17)
(0.837306 0.064211 -3.97432e-17)
(0.85873 0.0590458 -5.07156e-17)
(0.875866 0.0515593 -5.64494e-17)
(0.893463 0.045574 -6.71878e-17)
(0.902643 0.0353075 -7.31963e-17)
(0.914333 0.0278196 -8.46632e-17)
(0.915837 0.015578 -9.07041e-17)