/*--------------------------------*- C++ -*----------------------------------*\
| =========                 |                                                 |
| \\      /  F ield         | OpenFOAM: The Open Source CFD Toolbox           |
|  \\    /   O peration     | Version:  v2006                                 |
|   \\  /    A nd           | Website:  www.openfoam.com                      |
|    \\/     M anipulation  |                                                 |
\*---------------------------------------------------------------------------*/
FoamFile
{
    version     2.0;
    format      ascii;
    class       volScalarField;
    location    "50";
    object      alphat;
}
// * * * * * * * * * * * * * * * * * * * * * * * * * * * * * * * * * * * * * //

dimensions      [1 -1 -1 0 0 0 0];


internalField   nonuniform List<scalar> 
93840
(
2.81708e-08
2.85024e-08
2.77078e-08
2.7715e-08
2.88534e-08
2.82315e-08
2.96021e-08
2.89743e-08
2.98144e-08
2.99385e-08
2.99256e-08
3.03148e-08
3.01526e-08
3.04091e-08
3.01487e-08
3.05829e-08
3.02998e-08
3.13067e-08
3.28365e-08
2.96323e-08
3.75775e-08
1.66278e-07
7.08464e-07
1.14814e-06
1.57994e-06
8.54744e-07
1.37403e-06
5.20875e-06
1.00082e-05
1.04502e-05
1.15825e-05
1.10688e-05
1.17922e-05
1.06548e-05
1.14139e-05
1.06523e-05
1.07849e-05
1.0643e-05
1.03768e-05
1.04526e-05
1.00931e-05
1.0246e-05
9.78745e-06
9.9507e-06
9.50294e-06
9.67788e-06
9.27697e-06
9.34022e-06
9.02267e-06
9.12543e-06
8.79352e-06
8.81289e-06
8.5826e-06
8.5659e-06
8.43173e-06
8.33356e-06
8.25741e-06
8.14841e-06
7.99368e-06
7.99038e-06
7.80727e-06
7.81085e-06
7.68069e-06
7.6829e-06
7.59348e-06
7.57084e-06
7.55992e-06
7.51914e-06
7.53753e-06
7.52789e-06
7.54828e-06
7.60939e-06
7.61623e-06
7.68092e-06
7.73417e-06
7.77592e-06
7.82054e-06
7.89713e-06
7.94687e-06
8.07368e-06
8.2083e-06
8.32179e-06
8.42503e-06
8.53317e-06
8.66211e-06
8.76862e-06
8.91408e-06
9.05974e-06
9.21725e-06
9.39473e-06
9.5887e-06
9.81403e-06
1.00361e-05
1.02387e-05
1.04819e-05
1.07275e-05
1.09703e-05
1.11809e-05
1.14131e-05
1.165e-05
1.18774e-05
1.20664e-05
1.22845e-05
1.26422e-05
1.29426e-05
1.30395e-05
1.31442e-05
1.33692e-05
1.3613e-05
1.3846e-05
1.40723e-05
1.42925e-05
1.45128e-05
1.47621e-05
1.49906e-05
1.52137e-05
1.54239e-05
1.56602e-05
1.58668e-05
1.60773e-05
1.62674e-05
1.646e-05
1.65939e-05
1.67326e-05
1.6842e-05
1.69381e-05
1.69822e-05
1.70168e-05
1.71337e-05
1.7175e-05
1.71785e-05
1.72432e-05
1.72249e-05
1.73201e-05
1.73066e-05
1.73315e-05
1.73376e-05
1.74479e-05
1.73992e-05
1.75165e-05
1.74994e-05
1.7555e-05
1.75637e-05
1.76084e-05
1.76411e-05
1.76929e-05
1.77291e-05
1.77682e-05
1.77702e-05
1.78119e-05
1.7803e-05
1.78484e-05
1.78074e-05
1.7836e-05
1.77791e-05
1.77713e-05
1.76987e-05
1.76536e-05
1.75459e-05
1.74767e-05
1.73857e-05
1.7311e-05
1.7146e-05
1.70129e-05
1.67779e-05
1.64674e-05
1.59762e-05
1.5411e-05
1.48253e-05
1.44174e-05
1.31053e-05
8.54483e-06
1.82591e-06
5.07502e-06
1.03674e-05
4.2797e-06
6.29345e-09
4.10752e-07
1.49713e-06
1.12103e-06
5.48035e-10
5.27773e-08
4.98513e-07
5.55662e-07
1.54307e-07
2.84867e-08
1.68979e-09
2.02086e-06
6.51733e-06
2.88921e-06
1.85021e-08
9.9245e-06
1.66812e-05
1.45458e-05
1.30542e-05
1.54953e-05
1.75258e-05
1.86654e-05
1.89135e-05
1.89938e-05
1.89225e-05
1.88754e-05
1.87524e-05
1.86838e-05
1.85544e-05
1.85068e-05
1.84035e-05
1.83563e-05
1.82131e-05
1.81259e-05
1.79616e-05
1.78909e-05
1.77307e-05
1.76624e-05
1.75062e-05
1.74456e-05
1.72777e-05
1.72245e-05
1.70563e-05
1.69668e-05
1.6754e-05
1.6729e-05
1.65775e-05
1.65261e-05
1.63521e-05
1.6313e-05
1.61444e-05
1.61083e-05
1.59394e-05
1.59027e-05
1.57298e-05
1.57167e-05
1.55621e-05
1.55529e-05
1.53982e-05
1.53927e-05
1.52152e-05
1.52012e-05
1.50273e-05
1.5031e-05
1.4858e-05
1.48639e-05
1.4713e-05
1.471e-05
1.45658e-05
1.45224e-05
1.45014e-05
1.37809e-05
1.25577e-05
1.24071e-05
1.28566e-05
1.28466e-05
1.29356e-05
1.29062e-05
1.28749e-05
1.27886e-05
1.27119e-05
1.25997e-05
1.24276e-05
1.2262e-05
1.20839e-05
1.18492e-05
1.16253e-05
1.13893e-05
1.11302e-05
1.08615e-05
1.06013e-05
1.02952e-05
9.84621e-06
9.31942e-06
8.97085e-06
8.57871e-06
7.96951e-06
7.18427e-06
6.59561e-06
5.72346e-06
4.43538e-06
3.09693e-06
2.0126e-06
8.97673e-07
3.0882e-07
7.78858e-08
5.06729e-08
3.83658e-08
3.52917e-08
2.90905e-08
2.58275e-08
2.47398e-08
2.39856e-08
2.294e-08
2.32769e-08
2.09706e-08
2.13533e-08
2.1364e-08
2.46457e-08
2.45167e-08
2.11338e-08
1.84448e-08
1.63362e-08
1.79937e-08
1.88757e-08
1.92923e-08
2.08759e-08
3.33209e-08
4.70337e-08
5.64592e-08
6.6311e-08
7.00766e-08
1.00338e-07
7.42286e-08
6.9337e-08
9.27089e-08
9.97375e-08
1.1323e-07
1.36096e-07
1.68815e-07
1.97666e-07
3.08478e-07
4.13641e-07
5.65453e-07
6.15622e-07
6.71401e-07
6.86484e-07
6.54381e-07
5.74207e-07
4.52905e-07
3.43563e-07
3.07775e-07
2.57031e-07
1.87707e-07
1.04383e-07
1.55987e-07
3.97701e-07
2.87037e-07
7.3786e-07
2.2082e-07
4.43522e-06
9.85006e-06
1.03692e-05
1.3933e-05
1.18663e-05
4.36526e-06
2.11365e-06
1.346e-06
1.16439e-06
4.32499e-07
4.02503e-08
3.11945e-08
3.47126e-08
2.97889e-08
3.07768e-08
3.13245e-08
3.07894e-08
3.02725e-08
3.01309e-08
3.029e-08
3.00632e-08
3.0303e-08
3.01596e-08
3.01052e-08
2.91725e-08
2.95224e-08
2.81789e-08
2.88126e-08
2.76315e-08
2.76062e-08
2.84873e-08
2.80281e-08
2.7991e-08
2.84476e-08
2.75821e-08
2.76427e-08
2.87641e-08
2.80992e-08
2.9407e-08
2.90856e-08
2.98816e-08
2.93512e-08
2.9959e-08
2.99512e-08
3.00341e-08
3.00512e-08
3.05296e-08
3.06601e-08
3.07886e-08
3.33316e-08
3.54129e-08
4.06723e-08
6.68091e-08
7.04993e-08
9.70894e-09
2.05058e-07
2.00019e-06
2.62269e-06
1.20581e-06
7.98255e-07
3.63637e-06
4.81549e-06
6.473e-06
6.77695e-06
7.12271e-06
6.97129e-06
7.38003e-06
7.03621e-06
7.16524e-06
7.27237e-06
7.31187e-06
7.35397e-06
7.29354e-06
7.41488e-06
7.25265e-06
7.36881e-06
7.33618e-06
7.47128e-06
7.35518e-06
6.96976e-06
7.44319e-06
7.38862e-06
7.16903e-06
7.23387e-06
7.38859e-06
7.21618e-06
7.22153e-06
7.17504e-06
7.33388e-06
7.2446e-06
7.39509e-06
7.27099e-06
7.3427e-06
7.22931e-06
7.42367e-06
7.13789e-06
7.3569e-06
7.24832e-06
7.33801e-06
7.12594e-06
7.58476e-06
7.43812e-06
7.74977e-06
7.95512e-06
8.07207e-06
8.2981e-06
8.43019e-06
8.47502e-06
8.53887e-06
8.48722e-06
8.60745e-06
8.97965e-06
9.56383e-06
9.88936e-06
1.00199e-05
9.98169e-06
1.01668e-05
1.01753e-05
1.02701e-05
1.05956e-05
1.08027e-05
1.11693e-05
1.14325e-05
1.18976e-05
1.24036e-05
1.25916e-05
1.31716e-05
1.36941e-05
1.41956e-05
1.45467e-05
1.4945e-05
1.53975e-05
1.57147e-05
1.5876e-05
1.6096e-05
1.64412e-05
1.65426e-05
1.66958e-05
1.69028e-05
1.69076e-05
1.69741e-05
1.70169e-05
1.70267e-05
1.70218e-05
1.70111e-05
1.69422e-05
1.68927e-05
1.68453e-05
1.67703e-05
1.67029e-05
1.66026e-05
1.65089e-05
1.64047e-05
1.62987e-05
1.61994e-05
1.60902e-05
1.60484e-05
1.6026e-05
1.58635e-05
1.59381e-05
1.58331e-05
1.5784e-05
1.57517e-05
1.5707e-05
1.56486e-05
1.56005e-05
1.54921e-05
1.54277e-05
1.53397e-05
1.53031e-05
1.51436e-05
1.50955e-05
1.49089e-05
1.48437e-05
1.46955e-05
1.46313e-05
1.4464e-05
1.43593e-05
1.4186e-05
1.40488e-05
1.38619e-05
1.37181e-05
1.34965e-05
1.3313e-05
1.30483e-05
1.28123e-05
1.24873e-05
1.21691e-05
1.17652e-05
1.13272e-05
1.07485e-05
1.00463e-05
9.2073e-06
8.46065e-06
7.91445e-06
7.33542e-06
6.13087e-06
4.24648e-06
2.4804e-06
1.87586e-06
2.45938e-06
2.95221e-06
2.20321e-06
3.76092e-07
6.91419e-08
1.06854e-16
6.53252e-08
5.433e-08
4.15835e-08
5.45755e-08
9.72971e-09
2.62338e-08
1.48866e-07
1.62991e-07
2.20136e-09
4.37187e-08
1.6822e-07
8.56252e-08
1.57485e-08
3.35563e-08
4.58706e-08
1.00193e-08
1.72379e-09
5.29035e-07
2.42526e-06
2.1497e-06
5.35067e-07
1.01256e-06
3.71039e-06
6.13758e-06
6.9679e-06
7.45798e-06
8.37352e-06
9.62098e-06
1.05097e-05
1.12039e-05
1.17415e-05
1.2382e-05
1.29287e-05
1.3472e-05
1.38478e-05
1.41614e-05
1.43118e-05
1.45138e-05
1.46001e-05
1.47455e-05
1.48045e-05
1.49392e-05
1.49758e-05
1.50934e-05
1.51208e-05
1.52249e-05
1.50337e-05
1.51219e-05
1.51309e-05
1.5246e-05
1.52446e-05
1.5361e-05
1.53599e-05
1.54643e-05
1.55108e-05
1.56077e-05
1.56025e-05
1.55652e-05
1.54976e-05
1.54855e-05
1.54118e-05
1.54752e-05
1.54747e-05
1.56116e-05
1.5513e-05
1.57608e-05
1.55754e-05
1.58379e-05
1.56146e-05
1.60044e-05
1.54509e-05
1.62663e-05
1.65818e-05
1.59435e-05
1.80879e-05
1.94636e-05
1.92074e-05
1.89149e-05
1.84655e-05
1.80391e-05
1.76379e-05
1.7245e-05
1.69605e-05
1.67035e-05
1.64328e-05
1.65029e-05
1.65328e-05
1.62712e-05
1.61139e-05
1.6041e-05
1.58719e-05
1.57805e-05
1.56337e-05
1.54492e-05
1.51383e-05
1.45168e-05
1.37287e-05
1.28712e-05
1.16556e-05
1.01664e-05
9.16094e-06
7.65986e-06
6.29093e-06
5.3552e-06
4.87714e-06
4.43873e-06
4.19196e-06
3.78631e-06
3.39843e-06
2.8152e-06
2.50013e-06
2.14831e-06
1.92453e-06
1.85904e-06
1.79684e-06
1.61041e-06
1.44718e-06
1.40706e-06
1.40061e-06
1.35399e-06
1.42885e-06
1.41623e-06
1.2454e-06
1.10174e-06
9.74598e-07
1.01121e-06
9.92985e-07
1.00264e-06
1.04831e-06
1.29164e-06
1.49297e-06
1.60859e-06
1.81892e-06
1.96495e-06
2.44083e-06
2.36088e-06
2.03235e-06
1.97137e-06
1.90746e-06
1.67851e-06
1.37254e-06
1.02743e-06
8.42977e-07
4.45474e-07
2.86191e-07
3.09529e-07
3.11033e-07
3.03874e-07
3.39173e-07
1.37463e-07
1.97723e-07
3.11933e-07
4.60376e-07
3.65505e-07
3.00067e-07
6.55904e-07
1.11144e-06
1.17702e-06
1.5062e-06
1.89829e-06
2.11985e-06
3.27594e-06
5.81255e-06
6.3309e-06
1.22848e-05
1.32219e-05
1.6149e-05
8.88069e-06
8.31568e-06
4.57451e-06
1.18037e-06
6.58367e-09
1.0644e-08
2.90021e-08
3.1145e-08
3.3544e-08
3.33934e-08
3.16398e-08
3.09106e-08
3.05236e-08
3.05446e-08
3.02858e-08
3.04685e-08
3.00697e-08
3.04612e-08
2.9855e-08
2.90719e-08
2.9885e-08
2.82525e-08
2.88355e-08
2.76731e-08
2.76541e-08
2.85065e-08
2.81208e-08
2.8163e-08
2.85322e-08
2.76827e-08
2.76862e-08
2.87914e-08
2.82548e-08
2.94239e-08
2.92317e-08
2.94503e-08
2.98617e-08
2.98422e-08
3.02076e-08
3.01954e-08
3.07348e-08
3.04873e-08
3.11976e-08
3.16213e-08
3.11957e-08
2.97696e-08
3.40756e-08
3.13091e-08
8.53666e-09
1.57297e-08
3.28606e-07
1.42247e-06
3.05294e-06
3.46211e-06
2.74407e-06
2.15427e-06
3.45037e-06
3.54616e-06
4.19183e-06
4.08286e-06
4.55965e-06
4.3429e-06
4.58387e-06
4.46204e-06
4.90646e-06
4.87443e-06
5.29045e-06
5.10876e-06
5.34658e-06
5.251e-06
5.46331e-06
5.42508e-06
5.65271e-06
5.47771e-06
5.3764e-06
5.69318e-06
6.11428e-06
5.58131e-06
6.0065e-06
6.14997e-06
5.99428e-06
6.01307e-06
6.25645e-06
6.70671e-06
6.65267e-06
6.56048e-06
6.56789e-06
6.78054e-06
6.75977e-06
6.7153e-06
6.49734e-06
6.8933e-06
6.59567e-06
6.72576e-06
6.74762e-06
7.48699e-06
7.34685e-06
7.94582e-06
8.29934e-06
8.43316e-06
8.79211e-06
8.83169e-06
8.79829e-06
8.7092e-06
8.59971e-06
9.05448e-06
1.00766e-05
1.10971e-05
1.13931e-05
1.12882e-05
1.1108e-05
1.13446e-05
1.11606e-05
1.12833e-05
1.18581e-05
1.21544e-05
1.27151e-05
1.30977e-05
1.396e-05
1.4698e-05
1.49077e-05
1.60284e-05
1.69049e-05
1.77119e-05
1.82356e-05
1.89148e-05
1.96589e-05
2.00441e-05
2.01541e-05
2.04868e-05
2.09822e-05
2.09424e-05
2.10856e-05
2.12879e-05
2.10458e-05
2.09737e-05
2.08245e-05
2.06109e-05
2.03697e-05
2.01114e-05
1.97383e-05
1.94444e-05
1.91408e-05
1.88019e-05
1.84965e-05
1.81412e-05
1.78066e-05
1.74966e-05
1.719e-05
1.6942e-05
1.66563e-05
1.6522e-05
1.63647e-05
1.60719e-05
1.60817e-05
1.58045e-05
1.56913e-05
1.55096e-05
1.53527e-05
1.51349e-05
1.49218e-05
1.4639e-05
1.43796e-05
1.40808e-05
1.37983e-05
1.34008e-05
1.30718e-05
1.26305e-05
1.22903e-05
1.18767e-05
1.1525e-05
1.10586e-05
1.06348e-05
1.01264e-05
9.62895e-06
9.05427e-06
8.47516e-06
7.79305e-06
7.09396e-06
6.32564e-06
5.58288e-06
4.8241e-06
4.15252e-06
3.54142e-06
3.01563e-06
2.42066e-06
1.68321e-06
9.11977e-07
5.20406e-07
4.72025e-07
3.13266e-07
7.44663e-08
2.14422e-08
3.70969e-08
5.25488e-08
2.34679e-08
1.96055e-08
4.18724e-08
1.01521e-07
1.0777e-07
9.73291e-08
6.65503e-08
4.90509e-08
5.8484e-08
8.2206e-08
6.71456e-08
6.11707e-08
4.98966e-08
6.40291e-08
1.44364e-07
6.19444e-08
5.15429e-09
4.09745e-08
7.06167e-08
2.17281e-08
9.13263e-09
1.89309e-08
1.25758e-07
1.27523e-08
8.45449e-09
1.5306e-07
1.41217e-08
1.4205e-08
1.73295e-07
7.2148e-07
2.72691e-07
2.31846e-07
8.50881e-07
1.47724e-06
1.91665e-06
2.35326e-06
2.73285e-06
3.29233e-06
4.03719e-06
4.94508e-06
5.8601e-06
6.7765e-06
7.52657e-06
8.3145e-06
8.99774e-06
9.71537e-06
1.0303e-05
1.09194e-05
1.13812e-05
1.19328e-05
1.23374e-05
1.28379e-05
1.30119e-05
1.34033e-05
1.36798e-05
1.40742e-05
1.43124e-05
1.46587e-05
1.4928e-05
1.52331e-05
1.55855e-05
1.58528e-05
1.61898e-05
1.62739e-05
1.64985e-05
1.65168e-05
1.67192e-05
1.67839e-05
1.70381e-05
1.72922e-05
1.73741e-05
1.78218e-05
1.78045e-05
1.80978e-05
1.81895e-05
1.85412e-05
1.80394e-05
1.90932e-05
1.98137e-05
1.84391e-05
2.24406e-05
2.49248e-05
2.49727e-05
2.4895e-05
2.4428e-05
2.38679e-05
2.32738e-05
2.25972e-05
2.21162e-05
2.17192e-05
2.11829e-05
2.14051e-05
2.17173e-05
2.13509e-05
2.11148e-05
2.11494e-05
2.09964e-05
2.10131e-05
2.09697e-05
2.08551e-05
2.06225e-05
1.98814e-05
1.85921e-05
1.73481e-05
1.56077e-05
1.33295e-05
1.19575e-05
1.01656e-05
8.0789e-06
6.5277e-06
5.82953e-06
5.32322e-06
4.98581e-06
4.65584e-06
4.42379e-06
3.89883e-06
3.48258e-06
2.9437e-06
2.62086e-06
2.71015e-06
2.78474e-06
2.38814e-06
2.28051e-06
2.37192e-06
2.33734e-06
2.10307e-06
2.20491e-06
2.19968e-06
1.79967e-06
1.29166e-06
8.04053e-07
8.20697e-07
5.9749e-07
6.21125e-07
9.66758e-07
1.64198e-06
2.16427e-06
2.4312e-06
2.90988e-06
3.32406e-06
3.94318e-06
3.60199e-06
2.80382e-06
2.50794e-06
1.61601e-06
1.10752e-06
9.55002e-07
9.39055e-07
1.07549e-06
4.36496e-07
3.21293e-07
4.72242e-07
3.81576e-07
4.80608e-07
7.6472e-07
5.89955e-07
7.02322e-07
5.14907e-07
5.74102e-07
7.74551e-07
9.22512e-07
9.46151e-07
1.2459e-06
1.41125e-06
1.47685e-06
1.4717e-06
1.48554e-06
1.26695e-07
2.38273e-06
1.27501e-06
6.07232e-06
2.24335e-06
1.49801e-05
1.43385e-05
1.36188e-05
7.64802e-06
2.43456e-06
4.63358e-07
1.26672e-07
8.50086e-08
4.5037e-08
3.64308e-08
3.23718e-08
3.03073e-08
3.08015e-08
3.0193e-08
3.04634e-08
3.03511e-08
3.02535e-08
3.01778e-08
3.01161e-08
2.98465e-08
2.91946e-08
2.97443e-08
2.82107e-08
2.87699e-08
2.76339e-08
2.76197e-08
2.84949e-08
2.80372e-08
2.79741e-08
2.84463e-08
2.75704e-08
2.76145e-08
2.88029e-08
2.81254e-08
2.93976e-08
2.91496e-08
2.92881e-08
2.97838e-08
2.99466e-08
2.99537e-08
3.01514e-08
3.02775e-08
3.0555e-08
3.07055e-08
3.05945e-08
3.07273e-08
3.11673e-08
3.10576e-08
3.07642e-08
8.65299e-08
3.27688e-07
1.97222e-07
1.95719e-07
9.06205e-07
1.95069e-06
2.47511e-06
2.13135e-06
2.05949e-06
2.28299e-06
2.30233e-06
2.41623e-06
2.43246e-06
2.50718e-06
2.58604e-06
2.63013e-06
2.75992e-06
2.93977e-06
3.02503e-06
3.20236e-06
3.23966e-06
3.17068e-06
3.30542e-06
3.39408e-06
3.41861e-06
3.37982e-06
3.58502e-06
3.58088e-06
4.13964e-06
3.96203e-06
3.97034e-06
4.2989e-06
4.22925e-06
4.50013e-06
4.89566e-06
5.28823e-06
5.09307e-06
4.80335e-06
4.96639e-06
5.35281e-06
5.30506e-06
4.89825e-06
4.95363e-06
5.34981e-06
5.10842e-06
5.26623e-06
6.0647e-06
6.31889e-06
6.76923e-06
7.17293e-06
7.64867e-06
7.76237e-06
8.01082e-06
7.921e-06
7.75552e-06
7.55611e-06
7.73265e-06
8.76408e-06
1.03703e-05
1.12655e-05
1.1252e-05
1.09095e-05
1.07063e-05
1.0889e-05
1.05433e-05
1.08544e-05
1.16317e-05
1.19641e-05
1.25999e-05
1.31123e-05
1.42516e-05
1.49702e-05
1.52428e-05
1.67872e-05
1.78069e-05
1.87405e-05
1.93537e-05
2.02296e-05
2.11035e-05
2.14269e-05
2.14969e-05
2.19618e-05
2.24643e-05
2.22058e-05
2.23135e-05
2.24812e-05
2.20329e-05
2.18419e-05
2.15104e-05
2.11041e-05
2.06688e-05
2.02131e-05
1.96056e-05
1.91393e-05
1.86459e-05
1.81362e-05
1.76764e-05
1.71516e-05
1.66683e-05
1.624e-05
1.5814e-05
1.54736e-05
1.50625e-05
1.48609e-05
1.45943e-05
1.42295e-05
1.41295e-05
1.37701e-05
1.35573e-05
1.32459e-05
1.29934e-05
1.26117e-05
1.22746e-05
1.18019e-05
1.13768e-05
1.08544e-05
1.0358e-05
9.7093e-06
9.10124e-06
8.3572e-06
7.67814e-06
6.91997e-06
6.21614e-06
5.42498e-06
4.6982e-06
3.97047e-06
3.31776e-06
2.6997e-06
2.1332e-06
1.58365e-06
1.08221e-06
6.75034e-07
3.85078e-07
1.99361e-07
1.06344e-07
5.86876e-08
4.78216e-08
3.62745e-08
3.29386e-08
2.35933e-08
3.17101e-08
3.35269e-08
4.95315e-08
4.77334e-08
5.19634e-08
3.57977e-08
4.31092e-08
3.82584e-08
3.47695e-08
2.09698e-08
2.64394e-08
3.05636e-08
4.01201e-08
3.78156e-08
5.05599e-08
4.94786e-08
4.0812e-08
6.64559e-08
6.94236e-08
6.09852e-08
1.02698e-07
2.00139e-08
8.64578e-08
1.04942e-07
8.05992e-08
2.44799e-08
5.47845e-08
1.82488e-08
2.37704e-08
9.01069e-09
9.62605e-09
4.00982e-09
2.00878e-08
1.06478e-08
3.65402e-09
1.00322e-08
3.26288e-08
3.28291e-09
1.04058e-08
9.87641e-09
9.8545e-09
1.45529e-08
3.10741e-08
1.77923e-08
5.98399e-08
8.78897e-08
2.09938e-07
4.79871e-07
9.10541e-07
1.23069e-06
1.71115e-06
2.19705e-06
2.83441e-06
3.45582e-06
4.18603e-06
4.81009e-06
5.66419e-06
6.45277e-06
7.42565e-06
8.11457e-06
8.95807e-06
9.6225e-06
1.03639e-05
1.09075e-05
1.15033e-05
1.20461e-05
1.25469e-05
1.31949e-05
1.36271e-05
1.4309e-05
1.45313e-05
1.5075e-05
1.51685e-05
1.56583e-05
1.57426e-05
1.62672e-05
1.65996e-05
1.68867e-05
1.74324e-05
1.76628e-05
1.78667e-05
1.84032e-05
1.84217e-05
1.84892e-05
1.90447e-05
2.04078e-05
1.92927e-05
2.36402e-05
2.6406e-05
2.65256e-05
2.67356e-05
2.64131e-05
2.59244e-05
2.53231e-05
2.45358e-05
2.39499e-05
2.35474e-05
2.282e-05
2.30951e-05
2.37303e-05
2.34057e-05
2.30821e-05
2.32141e-05
2.31137e-05
2.32354e-05
2.33433e-05
2.33612e-05
2.33361e-05
2.27912e-05
2.12683e-05
1.98409e-05
1.80096e-05
1.53398e-05
1.36377e-05
1.18841e-05
9.32803e-06
7.08784e-06
6.12132e-06
5.67232e-06
5.34558e-06
4.98297e-06
4.7804e-06
4.18688e-06
3.51757e-06
2.87888e-06
2.41467e-06
2.64365e-06
2.81548e-06
2.25398e-06
2.0209e-06
2.31529e-06
2.37688e-06
2.01557e-06
2.14104e-06
2.15433e-06
1.44425e-06
5.43358e-07
1.86176e-07
2.22179e-07
2.27689e-07
2.86911e-07
5.37476e-07
1.03953e-06
1.81112e-06
2.30463e-06
3.00624e-06
3.84915e-06
4.86974e-06
4.3528e-06
3.38462e-06
2.7859e-06
9.4567e-07
7.4293e-07
9.30953e-07
5.24376e-07
6.57323e-07
1.83053e-07
2.29618e-07
7.37398e-07
5.73355e-07
5.66169e-07
5.10184e-07
4.48041e-07
6.50299e-07
5.07768e-07
7.29327e-07
6.58899e-07
9.50124e-07
7.14561e-07
7.97617e-07
5.71153e-07
5.83097e-07
1.07486e-06
1.338e-07
9.37631e-07
1.4111e-07
1.5583e-06
2.13817e-07
2.70664e-07
9.014e-06
1.64613e-05
1.5689e-05
8.38052e-06
3.52788e-06
1.45148e-06
3.0943e-07
9.68727e-08
4.96033e-08
3.10435e-08
2.95894e-08
3.0898e-08
3.11661e-08
3.04252e-08
3.04268e-08
3.04293e-08
3.04174e-08
3.00576e-08
3.06111e-08
2.94938e-08
2.91456e-08
2.9977e-08
2.83366e-08
2.88162e-08
2.7716e-08
2.77395e-08
2.85331e-08
2.81346e-08
2.8143e-08
2.85661e-08
2.76614e-08
2.78218e-08
2.88444e-08
2.82977e-08
2.97746e-08
2.91067e-08
2.92711e-08
3.01025e-08
2.95497e-08
3.00612e-08
3.03058e-08
3.07955e-08
3.04058e-08
3.0565e-08
3.02978e-08
3.1271e-08
3.31146e-08
3.64545e-08
6.98739e-08
1.19066e-07
3.90438e-08
3.17676e-08
4.59344e-07
1.47269e-06
2.12243e-06
2.67722e-06
2.79889e-06
2.68352e-06
2.71329e-06
2.66719e-06
2.69085e-06
2.60359e-06
2.71262e-06
2.57115e-06
2.69974e-06
2.62337e-06
2.75631e-06
2.72178e-06
2.90047e-06
2.86784e-06
2.94406e-06
2.73121e-06
2.78681e-06
2.80371e-06
2.70864e-06
2.81322e-06
2.84675e-06
2.74256e-06
3.13723e-06
2.9381e-06
3.1837e-06
3.02935e-06
3.26934e-06
3.62484e-06
3.16011e-06
3.53912e-06
2.98062e-06
3.73202e-06
3.49732e-06
3.72041e-06
3.2641e-06
3.62201e-06
3.8492e-06
4.29745e-06
4.06379e-06
4.85763e-06
5.04802e-06
5.55082e-06
5.93449e-06
5.89522e-06
6.41523e-06
6.06075e-06
6.10111e-06
5.90786e-06
6.0513e-06
6.95046e-06
8.3338e-06
9.82447e-06
1.00769e-05
9.83176e-06
9.37972e-06
9.14252e-06
9.16981e-06
8.89656e-06
9.62802e-06
1.0471e-05
1.07367e-05
1.13928e-05
1.21024e-05
1.33307e-05
1.38383e-05
1.42924e-05
1.61241e-05
1.70985e-05
1.80431e-05
1.87113e-05
1.97196e-05
2.05844e-05
2.07551e-05
2.0817e-05
2.14032e-05
2.17575e-05
2.12447e-05
2.13258e-05
2.14087e-05
2.07524e-05
2.04454e-05
1.99197e-05
1.93278e-05
1.87126e-05
1.80727e-05
1.72598e-05
1.66648e-05
1.60144e-05
1.53905e-05
1.48149e-05
1.41725e-05
1.35826e-05
1.30911e-05
1.25681e-05
1.21782e-05
1.16476e-05
1.14137e-05
1.10364e-05
1.06276e-05
1.0404e-05
9.99546e-06
9.64254e-06
9.2285e-06
8.85127e-06
8.29408e-06
7.79933e-06
7.08088e-06
6.45222e-06
5.62324e-06
4.90006e-06
4.00895e-06
3.27998e-06
2.50092e-06
1.96325e-06
1.36462e-06
1.03652e-06
5.3969e-07
3.88454e-07
1.64263e-07
1.37233e-07
7.43702e-08
6.1846e-08
5.15734e-08
3.91525e-08
4.24763e-08
3.68132e-08
4.26749e-08
4.6865e-08
4.96321e-08
5.47505e-08
4.41513e-08
4.74472e-08
3.8066e-08
4.5595e-08
3.63826e-08
3.88382e-08
3.20391e-08
3.66347e-08
3.63374e-08
4.20659e-08
4.89154e-08
6.45178e-08
7.51637e-08
6.55176e-08
5.50401e-08
4.79234e-08
5.78041e-08
5.15559e-08
6.09106e-08
5.62131e-08
4.91207e-08
4.908e-08
5.19716e-08
5.69103e-08
7.65589e-08
3.85643e-08
3.57363e-08
2.81333e-08
1.72204e-08
3.27807e-08
2.32801e-08
4.36269e-08
2.03443e-08
3.00402e-08
1.53563e-08
2.69436e-08
1.15797e-08
1.58286e-08
8.23877e-09
2.13658e-08
8.38963e-09
2.29784e-08
1.04222e-08
2.12378e-08
1.01809e-08
2.43717e-08
7.08904e-09
3.10392e-08
8.70658e-09
2.51365e-08
1.29444e-08
3.63839e-08
1.19677e-08
5.48071e-08
2.41818e-08
9.31227e-08
8.54751e-08
2.6844e-07
2.72023e-07
6.6524e-07
9.51242e-07
1.62839e-06
2.0745e-06
2.80072e-06
3.4489e-06
4.31664e-06
5.05588e-06
5.84912e-06
6.69017e-06
7.44756e-06
8.48933e-06
9.17786e-06
1.0262e-05
1.0696e-05
1.15821e-05
1.17882e-05
1.25904e-05
1.27327e-05
1.34999e-05
1.39551e-05
1.44664e-05
1.51232e-05
1.55807e-05
1.57714e-05
1.66241e-05
1.64592e-05
1.70025e-05
1.71213e-05
1.88711e-05
1.8486e-05
2.26236e-05
2.54139e-05
2.5356e-05
2.57773e-05
2.56772e-05
2.53667e-05
2.48947e-05
2.41005e-05
2.3458e-05
2.31493e-05
2.22845e-05
2.25135e-05
2.35302e-05
2.34122e-05
2.30078e-05
2.32275e-05
2.32178e-05
2.34551e-05
2.37693e-05
2.39795e-05
2.42291e-05
2.41362e-05
2.26765e-05
2.11712e-05
1.9433e-05
1.66779e-05
1.46127e-05
1.29459e-05
1.02981e-05
7.35496e-06
5.71626e-06
5.24085e-06
5.13486e-06
4.75792e-06
4.53517e-06
3.86278e-06
2.84307e-06
2.04526e-06
1.46509e-06
1.77728e-06
2.14442e-06
1.45396e-06
9.92984e-07
1.37073e-06
1.58e-06
1.16075e-06
1.40685e-06
1.44927e-06
6.14419e-07
2.72155e-07
2.34097e-07
2.78506e-07
3.53083e-07
4.18143e-07
5.42234e-07
6.69247e-07
9.28254e-07
1.37568e-06
2.35831e-06
3.91987e-06
5.56866e-06
4.97965e-06
3.67759e-06
2.49324e-06
5.34245e-08
5.84439e-07
3.51632e-07
2.85761e-07
5.72282e-07
4.8087e-07
5.84272e-07
7.95907e-07
6.96365e-07
8.33575e-07
8.6854e-07
8.10597e-07
8.33316e-07
5.50924e-07
8.56199e-07
4.97571e-07
5.7929e-07
5.00548e-07
3.43345e-07
3.77415e-07
1.15111e-06
5.3289e-07
1.82677e-07
2.27094e-07
1.40857e-08
9.42315e-07
2.89013e-08
2.08505e-07
2.58023e-06
1.3913e-05
1.46423e-05
8.32672e-06
3.54101e-06
1.26841e-06
2.45936e-07
4.98588e-08
2.89741e-08
2.8758e-08
3.29916e-08
3.18633e-08
3.13693e-08
3.05987e-08
3.04589e-08
3.05578e-08
3.05339e-08
3.03749e-08
3.01158e-08
2.97758e-08
2.93343e-08
2.97634e-08
2.82589e-08
2.87852e-08
2.76005e-08
2.75377e-08
2.84591e-08
2.8045e-08
2.805e-08
2.84296e-08
2.759e-08
2.76435e-08
2.87116e-08
2.81535e-08
2.93787e-08
2.9327e-08
2.9618e-08
2.98415e-08
2.96784e-08
2.98625e-08
3.00711e-08
3.06172e-08
3.05798e-08
3.05096e-08
3.10336e-08
3.26385e-08
3.29134e-08
3.28511e-08
2.31853e-08
3.70493e-09
2.44213e-09
4.97568e-08
1.88622e-08
3.23428e-08
8.38534e-07
1.56663e-06
2.10182e-06
2.23952e-06
2.41933e-06
2.48065e-06
2.57357e-06
2.63773e-06
2.65782e-06
2.72523e-06
2.69657e-06
2.77784e-06
2.76392e-06
2.80901e-06
2.82308e-06
2.81133e-06
2.85083e-06
2.75852e-06
2.74038e-06
2.71957e-06
2.85849e-06
2.78986e-06
2.96725e-06
2.93224e-06
2.93549e-06
3.07311e-06
2.92352e-06
2.9888e-06
2.79351e-06
3.15745e-06
3.05133e-06
2.98801e-06
3.11358e-06
3.28223e-06
3.37932e-06
2.86834e-06
3.54201e-06
3.23532e-06
3.59279e-06
3.63674e-06
3.85102e-06
3.76947e-06
4.2385e-06
4.3792e-06
4.58696e-06
4.25038e-06
4.97222e-06
4.58818e-06
4.71709e-06
5.23227e-06
5.49601e-06
6.51002e-06
7.28104e-06
8.10124e-06
7.87839e-06
7.63406e-06
7.15145e-06
6.94204e-06
7.10735e-06
7.36051e-06
8.2679e-06
8.73311e-06
8.92467e-06
9.6955e-06
1.04843e-05
1.14049e-05
1.16858e-05
1.24407e-05
1.41961e-05
1.49635e-05
1.58307e-05
1.65277e-05
1.75658e-05
1.82671e-05
1.82445e-05
1.83494e-05
1.89944e-05
1.90547e-05
1.83096e-05
1.83575e-05
1.82991e-05
1.74523e-05
1.70374e-05
1.63092e-05
1.55511e-05
1.47755e-05
1.39655e-05
1.29702e-05
1.22758e-05
1.14796e-05
1.07629e-05
1.00771e-05
9.31141e-06
8.61236e-06
8.06835e-06
7.46081e-06
7.02318e-06
6.3586e-06
6.13455e-06
5.63724e-06
5.22869e-06
4.88344e-06
4.51303e-06
4.03806e-06
3.67456e-06
3.23978e-06
2.74616e-06
2.30308e-06
1.74052e-06
1.33295e-06
7.67836e-07
5.11371e-07
1.96332e-07
1.27647e-07
5.31165e-08
5.8357e-08
2.71158e-08
4.54739e-08
2.08517e-08
3.65139e-08
2.25879e-08
3.0891e-08
2.61871e-08
2.74625e-08
2.93791e-08
2.78182e-08
3.26066e-08
2.92073e-08
3.06476e-08
2.55379e-08
2.52655e-08
2.3276e-08
2.75537e-08
3.02353e-08
3.6718e-08
3.66274e-08
4.00238e-08
3.89957e-08
4.42644e-08
4.35716e-08
4.76271e-08
4.21867e-08
3.89102e-08
2.90101e-08
2.86019e-08
2.9682e-08
4.17494e-08
4.46356e-08
4.94788e-08
4.77382e-08
5.39293e-08
5.85257e-08
5.87456e-08
6.99481e-08
6.58879e-08
8.8174e-08
4.68274e-08
8.99993e-08
6.55741e-08
6.7383e-08
5.5478e-08
3.45454e-08
2.14787e-08
2.27868e-08
1.65234e-08
1.70155e-08
1.2011e-08
1.39992e-08
1.05886e-08
1.20072e-08
8.24107e-09
9.85439e-09
6.66522e-09
8.92871e-09
6.37009e-09
9.75971e-09
6.31241e-09
1.09391e-08
4.90531e-09
1.07516e-08
4.64322e-09
1.08345e-08
4.67353e-09
1.21851e-08
4.70254e-09
1.58426e-08
4.82176e-09
2.014e-08
6.1243e-09
2.97218e-08
7.31603e-09
3.32519e-08
8.5561e-09
4.78643e-08
2.01311e-08
1.04448e-07
9.45138e-08
3.3467e-07
5.64963e-07
8.63494e-07
1.42491e-06
1.69558e-06
2.59876e-06
3.049e-06
4.28911e-06
4.83089e-06
6.01622e-06
6.37476e-06
7.47795e-06
7.79754e-06
8.80938e-06
9.50832e-06
1.02425e-05
1.11301e-05
1.17248e-05
1.20976e-05
1.30146e-05
1.29661e-05
1.37238e-05
1.35967e-05
1.54207e-05
1.6198e-05
1.98903e-05
2.23174e-05
2.18765e-05
2.23918e-05
2.25232e-05
2.24554e-05
2.22003e-05
2.1506e-05
2.08217e-05
2.07066e-05
1.9778e-05
1.98505e-05
2.12526e-05
2.15399e-05
2.11005e-05
2.13893e-05
2.15034e-05
2.18662e-05
2.24338e-05
2.29066e-05
2.34647e-05
2.39736e-05
2.29254e-05
2.15263e-05
1.99607e-05
1.7364e-05
1.50149e-05
1.33273e-05
1.08463e-05
7.6426e-06
5.20642e-06
4.27706e-06
4.22815e-06
3.93614e-06
3.83412e-06
3.23259e-06
2.18748e-06
1.40336e-06
8.47457e-07
9.11268e-07
1.28487e-06
8.17532e-07
4.21146e-07
5.54599e-07
7.15978e-07
5.0637e-07
5.92633e-07
6.50516e-07
2.35499e-07
1.82466e-07
1.71045e-07
1.85399e-07
2.20727e-07
2.59659e-07
3.34218e-07
4.16258e-07
4.88072e-07
6.28064e-07
1.54922e-06
3.68066e-06
5.96064e-06
5.47537e-06
4.0327e-06
2.1345e-06
2.44014e-09
8.67386e-07
4.83665e-07
7.17865e-07
9.53294e-07
5.50622e-07
6.11257e-07
6.93661e-07
7.39954e-07
6.08764e-07
6.41534e-07
4.57141e-07
7.25485e-07
4.54703e-07
6.49491e-07
6.90193e-07
6.43873e-07
3.31758e-07
2.55976e-07
5.23559e-07
4.96162e-07
2.70724e-07
9.86935e-07
1.22126e-06
7.61709e-07
1.27306e-06
5.54023e-09
2.70819e-06
3.49916e-06
9.58999e-06
1.16535e-05
8.95767e-06
3.40532e-06
7.71205e-07
1.94619e-07
7.16429e-08
3.59852e-08
3.52094e-08
3.2232e-08
3.04735e-08
3.03765e-08
3.03221e-08
3.06548e-08
3.07642e-08
3.05108e-08
3.01747e-08
3.02794e-08
2.9487e-08
2.9287e-08
2.98982e-08
2.82196e-08
2.88194e-08
2.77075e-08
2.77543e-08
2.85288e-08
2.81009e-08
2.81196e-08
2.85501e-08
2.76278e-08
2.78106e-08
2.89265e-08
2.82182e-08
2.93677e-08
2.91286e-08
2.91668e-08
2.98988e-08
2.97826e-08
3.04247e-08
2.98788e-08
3.04494e-08
3.05409e-08
3.05556e-08
3.09645e-08
3.13685e-08
3.17441e-08
3.15183e-08
3.02878e-08
4.08956e-08
9.07442e-08
8.16519e-08
2.38817e-07
4.90901e-07
7.11724e-07
1.27726e-06
1.51658e-06
1.86369e-06
1.96146e-06
2.1374e-06
2.20604e-06
2.33163e-06
2.36743e-06
2.44365e-06
2.46028e-06
2.52242e-06
2.52212e-06
2.63161e-06
2.59143e-06
2.71615e-06
2.68388e-06
2.79201e-06
2.75101e-06
2.84762e-06
2.81389e-06
3.02444e-06
2.86875e-06
3.13344e-06
2.97164e-06
3.10368e-06
3.00929e-06
3.08883e-06
3.05768e-06
3.13177e-06
3.36013e-06
3.19297e-06
3.21962e-06
3.33044e-06
3.33709e-06
3.36098e-06
3.11609e-06
3.8484e-06
3.22491e-06
3.70306e-06
3.70184e-06
3.69714e-06
3.81968e-06
4.09975e-06
4.10573e-06
4.0141e-06
4.37364e-06
4.69877e-06
4.2819e-06
5.26583e-06
5.09984e-06
5.60018e-06
5.93311e-06
6.06388e-06
5.88075e-06
5.8103e-06
5.62015e-06
5.68751e-06
6.1214e-06
6.46307e-06
6.88175e-06
7.0773e-06
7.31057e-06
7.98606e-06
8.38509e-06
8.80036e-06
8.98009e-06
9.81096e-06
1.10137e-05
1.14951e-05
1.22167e-05
1.28953e-05
1.37964e-05
1.41864e-05
1.39903e-05
1.41815e-05
1.4763e-05
1.43995e-05
1.34604e-05
1.3421e-05
1.31305e-05
1.20593e-05
1.14816e-05
1.04702e-05
9.49158e-06
8.52375e-06
7.49838e-06
6.38517e-06
5.77576e-06
4.91066e-06
4.34412e-06
3.77294e-06
3.11765e-06
2.61617e-06
2.3001e-06
1.85441e-06
1.67757e-06
1.12846e-06
1.19634e-06
7.8643e-07
6.97945e-07
4.81005e-07
4.42548e-07
2.21784e-07
2.30933e-07
1.1529e-07
1.06009e-07
5.78854e-08
5.32098e-08
3.68907e-08
3.72612e-08
3.22163e-08
3.45892e-08
3.08902e-08
3.37724e-08
3.07902e-08
3.31021e-08
3.14235e-08
3.37287e-08
3.22821e-08
3.47403e-08
3.2936e-08
3.58134e-08
3.43741e-08
3.76109e-08
3.51496e-08
3.7277e-08
3.56329e-08
4.09073e-08
4.27672e-08
4.98561e-08
4.90663e-08
4.85924e-08
4.01743e-08
3.70302e-08
3.39536e-08
3.72447e-08
3.70199e-08
3.85573e-08
3.48584e-08
3.52636e-08
3.61289e-08
4.47038e-08
5.31863e-08
6.15442e-08
5.91664e-08
5.33172e-08
4.80165e-08
4.73254e-08
5.01871e-08
4.86251e-08
5.29922e-08
5.16427e-08
4.70296e-08
4.07939e-08
4.86906e-08
4.48478e-08
4.44084e-08
3.35713e-08
2.97867e-08
3.36593e-08
3.56074e-08
2.95089e-08
2.75576e-08
2.35222e-08
2.19605e-08
1.85737e-08
1.68528e-08
1.47121e-08
1.55628e-08
1.48267e-08
1.51268e-08
1.40606e-08
1.34948e-08
1.21606e-08
1.23533e-08
1.17697e-08
1.35441e-08
1.33518e-08
1.52092e-08
1.35615e-08
1.62091e-08
1.39113e-08
1.51695e-08
1.24134e-08
1.43386e-08
1.05422e-08
1.20191e-08
8.16048e-09
1.01887e-08
7.43329e-09
1.21113e-08
1.02686e-08
1.53537e-08
1.23372e-08
1.54486e-08
1.75265e-08
1.17139e-08
3.96466e-08
3.45162e-09
1.0695e-07
9.82086e-10
2.5224e-07
1.20969e-08
5.71657e-07
3.85742e-07
1.19316e-06
1.25606e-06
1.97897e-06
2.17767e-06
2.8328e-06
3.6421e-06
4.29945e-06
5.46654e-06
6.114e-06
6.70379e-06
7.68583e-06