/*--------------------------------*- C++ -*----------------------------------*\
| =========                 |                                                 |
| \\      /  F ield         | OpenFOAM: The Open Source CFD Toolbox           |
|  \\    /   O peration     | Version:  v2006                                 |
|   \\  /    A nd           | Website:  www.openfoam.com                      |
|    \\/     M anipulation  |                                                 |
\*---------------------------------------------------------------------------*/
FoamFile
{
    version     2.0;
    format      ascii;
    class       volScalarField;
    location    "50";
    object      ducSensor;
}
// * * * * * * * * * * * * * * * * * * * * * * * * * * * * * * * * * * * * * //

dimensions      [0 0 0 0 0 0 0];


internalField   nonuniform List<scalar> 
93840
(
0.0566736
0.0110044
0.0148555
0.0265647
0.00329084
0.00708232
0.000177432
0
0.0635816
0.0007744
0
0.0377993
0
0
0
0
0.102537
0
0
0
0.517541
0
0
0.000498543
0.0706967
0
0.181944
0
0.177001
0.0285412
0
0
0
0
0
0
0
0
0
0
0
0
0
0
0
0
0
0
0.000293392
0
0
2.56051e-05
0
0.000183513
0.000336088
0
0
0
0
0
2.76235e-05
0
0
0.0010923
0
0
0.000348365
0
0.00098716
0
0.000370745
0
0
0.000143165
0.000212847
9.31893e-05
0.000650331
0.000385711
4.81033e-05
0.000346849
0.00062128
0.000145199
0.000351395
0.00045062
0.0003393
0.000414543
0.000396546
0.000453421
0.000334221
0.00047996
0.0004683
0.000461337
0.000466647
0.000467176
0.000504459
0.000537338
0.000516308
0.000489008
0.000546164
0.000550744
0.000548981
0.000551098
0.000707358
0.000876695
0.000602769
0.000315303
0.000484229
0.000698421
0.000717865
0.000700342
0.000695444
0.000675398
0.000722069
0.000722597
0.000676431
0.00062969
0.000650546
0.000618195
0.000543321
0.000506984
0.000437156
0.000344109
0.000150595
0
0
0
0
0
0
0
0
0
0
0
0
0
0
0
0
0
0
0
0
0
0
0
0
0
0
0
0
0
0
0
0
0
0
0
0
0
0
0
0
0
0
0
0
0
0
0
0
0
0
0
0
0
0
0
0
0
0
0
0
0
0
0
0
0
0
0
0
0
0
0
0
0
0
0
0
0
0.000956286
0.00112913
0.00091566
0.000475112
0.000598502
0.000559838
0.000656643
0.000605796
0.000440826
0
0
0
6.59912e-05
0.000294186
0.00025521
0.000139605
0
0
0
0
0
0
0.000155292
0
7.82392e-05
5.64442e-05
0
6.4189e-05
0.000173431
0
0
0
0
0
0
0
0
0
0.000103565
0
3.58742e-05
0
0
0.000221362
0.000569388
0.00135771
0.00332842
0.00552197
0.00491776
0.000218804
0
0.000552146
0.000207273
0.000382135
0.000390642
0.000494178
0.000502648
0.000642715
0.000749364
0.000825654
0.000831128
0.000853426
0.000856651
0.000906415
0.000940433
0.000949389
0.000987153
0.00119691
0.00137096
0.00112895
0.000895298
0.00111757
0.00144373
0.00140705
0.00124747
0.0013877
0.00173142
0.00189405
0.00210529
0.0023603
0.00277727
0.00434777
0.0103806
0.0185712
0.0203991
0.0195705
0.00174068
0.0255539
0
0
0
0
0.00320567
0.0136183
0.00100808
0.00198375
0.00768086
0
0
0
0
0.0115238
0
0.00708521
0.000118391
0
0.0353472
0.0792713
0.268968
0.0933378
0.0342292
0
0
0
0.00241564
0.0179865
0.0126119
0.00398499
0.00730141
0.0109353
0
0
0
0
0.0106902
0.0036735
0
0
0.00380976
0
0.00798468
0
0.0298611
0
0
0.108368
0
0
0
0.00575619
0
0.0823304
0.0484895
0
0.0908721
0.308161
0
0
0
0
0
0.0899907
0.00141886
0
0
0.00522133
0.0259495
0
0.0296667
0.00727024
0
0.0220085
0.0092002
0
0.0128158
0
0.00870331
0
0
0.0152625
0.0152974
0
0.041548
0.0212751
0
0
0.012007
0
0.00681495
0
0
0
0
0.0264749
0
0
0
0.189493
0.792347
0
0
0
0
0.342508
0.122831
0
0.277113
0
0
0
0
0
0
0
0
0
0
0.021609
0
0.00272331
0
0
0.0167591
0
0.00520433
0.00382149
0
0.0188971
0.002352
0.00168919
0.00810371
0
0.0211567
0.00417853
0.0009093
0.0148643
0
0.00230499
0.00694415
0.00516971
0
0.00383916
0
0.00289402
0.00128291
0.00108698
0
0.00739832
0
0
0
0.000942817
0
0
0.00131857
0.000230347
0
0.0013727
0
0.00157543
0
0
0
1.51012e-05
0
0.000170759
2.30679e-05
0.000219106
0.000361977
0.000446859
0.000322892
0.000383671
0.000938157
0.00107624
0.00112654
0.00135098
0.00160303
0.00193077
0.00201926
0.00203018
0.00266079
0.00336598
0.00257464
0.0016343
0.00229168
0.0031973
0.00346453
0.00359909
0.00371608
0.00368082
0.00396568
0.00411839
0.00387042
0.0036613
0.00385675
0.00353848
0.00320846
0.00274114
0.00255776
0.00113461
0.000108802
0
0
0
0
0
0
0
0
0
0
0
0
0
0
0
0
0
0
0
0
0
0
0
0
0
0
0
0
0
0
0
0
0
0
0
0
0
0
0
0
0
0
0
0
0
0
0
0
0
0
0
0
0
0
0.156355
0.161285
0.187709
0.12859
0.382212
0.633021
0.236999
0
0
0
0
0
0
0
0
0
0
0
0
0
0
0
0.0172426
0
0
0
0
0
0.00692511
0.00889173
0.00917889
0.00281637
0
0
0
0
0
0
0
0
0
0
0
0
0
0
0
0
0
0
0
0
0
0
0
0
0
0
0
0
0
0
0
0
0
0
0.000891184
0.00423762
0.0134883
0.0319019
0.0438221
0.0224295
0.00391577
0.00262894
0.00304002
0.00323732
0.00421774
0.00400918
0.00399374
0.00388545
0.00433027
0.00473216
0.00485296
0.0048014
0.00463184
0.00439988
0.00433172
0.00416634
0.00395325
0.00372098
0.00365915
0.00307271
0.00235596
0.00162302
0.00109799
0
0
0
0
0
0
0
0
0
0
0
0
0
0
0
0
0
0
0.00344593
0.0242118
0
0.0493767
0.0221099
0.0425731
0.0429833
0
0
0
0
0.00358795
0
0
0.0543205
0
0.0296524
0
0.167106
0.109374
0.0427588
0
0
0
0
0.00853343
0.0189646
0
0.00466502
0
0
0
0
0
0.0366511
0.0603737
0
0
0
0
0
0
0.284311
0
0.0709035
0
0.0323056
0
0.0161895
0.0252134
0.00374368
0
0.348293
0.0328436
0
0.403045
0
0.119194
0.26253
0
0
0
0.0244829
0
0
0.0121393
0.0143661
0
0.00112732
0
0.0184298
0
0.00768669
0.0180462
0
0.0110252
0.0211508
0.0163787
0.0222587
0.0184191
0
0.0758773
0
0.0167579
0.0209709
0.0635971
0
0
0.00202787
0
0.0200406
0
0
0
0
0
0
0.232512
0.761592
0.824656
0
0
0
0.024948
0.218605
0
0.0708799
0
0
0.144438
0
0
0
0
0
0
0
0
0
0
0
0
0
0
0
0
0
0
0.000278607
0.00650829
0
0
0.0112525
0
0
0.00631792
0
0
0.00328229
0.00591792
0
0
0.00281694
0
0
0
0
0
0.0019017
0
0
0.000664341
0.00326403
0.000246618
0.00190532
0.00137616
0.00336089
0.00261074
0.00269227
0.00180868
0.00311119
0.00156088
0.00359937
0.00266484
0.00371738
0.0023944
0.00388358
0.00328254
0.0042792
0.00421324
0.00375447
0.0040587
0.00454636
0.00475247
0.00472515
0.00486358
0.00532378
0.00563304
0.00561465
0.00553912
0.00726682
0.00903187
0.0063008
0.00332876
0.00493687
0.00722997
0.00773078
0.00786209
0.00796477
0.00787195
0.00851287
0.00899349
0.00861762
0.00828886
0.00871235
0.00826539
0.00786046
0.00688898
0.00691551
0.00412162
0.00326495
0
0
0
0
0
0
0
0
0
0
0
0
0
0
0
0
0
0
0
0
0
0
0
0
0
0
0
0
0
0
0
0
0
0
0
0
0
0
0
0
0
0
0
0
0
0
0
0
0
0
0
0
0
0
0
0
0
0
0
0
0
0
0
0
0
0
0
0
0
0
0
0
0
0
0
0
0.0471879
0.0286121
0
0.0118215
0.00988999
0.0200167
0.0575597
0.049634
0.0413151
0.0209956
0.00214917
0.000402579
0
0
0
0
0
0
0
0
0
0
0
0.000779597
0
0
0.000148356
0.000139801
0.000153881
0.0016363
0
0
0
0
0
0
0
0
0
0.00175517
0
0
0
0
0.000859325
0.00875081
0.0188901
0.050759
0.0626237
0.052228
0.00342812
0
0.00532018
0.0021657
0.00309823
0.00409313
0.00496686
0.0056575
0.00706787
0.00853424
0.00887408
0.00911554
0.00907964
0.00910262
0.00921039
0.00927665
0.00904417
0.00909896
0.0104743
0.0108844
0.00849828
0.00669783
0.0081398
0.00966634
0.00810464
0.00660543
0.00630465
0.00707479
0.00601406
0.00569755
0.00534892
0.00477292
0.00385783
0.00434385
0.00519175
0.00430718
0.00362
0.00406024
0.00252858
0.0046719
0
0.00742814
0
0.0146378
0.0866293
0.0310975
0.0115667
0.0153882
0
0
0
0
0.069541
0.149081
0
0
0.0469047
0.341897
0.133684
0.325643
0.358577
0.304864
0
0
0
0.0331512
0.137301
0.0994403
0.0702026
0.127869
0.144671
0
0
0
0
0.0484918
0.0701971
0.104362
0
0
0
0
0.416712
0
0
0
0
0.0485881
0
0
0
0.00688197
0
0
0
0
0.433379
0.48863
0.765058
0
0
0.129821
0
0
0
0
0.0534467
0
0.00874773
0
0.00344534
0.00518045
0
0.0208231
0.00894568
0
0.0191638
0.0188893
0
0.0300731
0.0145416
0.017747
0
0
0.0287297
0.0132785
0.017969
0
0.000754115
0
0
0
0
0
0.00496431
0
0
0
0.355184
0.763512
0.935548
0.358804
0
0.150421
0.0225595
0.0397809
0.0531038
0
0
0
0.00420276
0
0
0
0
0
0
0
0
0
0
0
0.00866187
0.000890571
0.000272505
0
0
0
0.00100245
0
0.00248928
0
0.00896832
0.00180124
0.00436306
0
0.00325574
0
0
0.00394896
0
0.00825092
0
0.00313477
0
0.000985593
0
0
0.000528554
0
0
0
0.00136596
0.000756862
0
0.00232461
0.00117156
0.00278656
0.00151316
0.00227137
0.00166884
0.00135387
0.001539
0.00282288
0.00161297
0.00306554
0.00155472
0.00310236
0.0024083
0.00344029
0.00337103
0.00300447
0.00329756
0.00391818
0.00422505
0.00419987
0.00441
0.00490739
0.00528344
0.0053396
0.00536398
0.00710645
0.00895821
0.00633756
0.00341374
0.00506974
0.00744327
0.00806644
0.0082659
0.00846828
0.00844106
0.00933535
0.00992019
0.00961277
0.00938136
0.00998221
0.00970623
0.00911928
0.0082706
0.00801101
0.00487577
0.00295292
0
0
0
0
0
0
0
0
0
0
0
0
0
0
0
0
0
0
0
0
0
0
0
0
0
0
0
0
0
0
0
0
0
0
0
0
0
0
0
0
0
0
0
0
0
0
0
0
0
0
0
0
0
0
0
0
0
0
0.0907329
0.369861
0
0
0
0
0
0
0
0
0
0
0
0
0
0
0
0
0
0
0.76849
0.37869
0.506679
0.482083
0.469105
0.472262
0.423689
0.139459
0.10202
0
0.0103498
0.0174032
0.00584524
0.00438377
0.0066325
0.00100058
0.00408283
0
0
0
0
0
0
0
0
0
0
0.000526211
0
0
0
0
0
0
0
0
0
0
0
0
0
0.000540212
0
0.00984813
0.0265934
0.0622662
0.0659676
0.0756117
0.00535776
0
0.00369292
0.00244426
0.0037962
0.00418764
0.00519266
0.00579084
0.00738822
0.00888612
0.0092778
0.0094413
0.00941023
0.00932026
0.00936872
0.00929826
0.00898841
0.00896406
0.0100188
0.010182
0.00786086
0.00612241
0.00701293
0.0076406
0.00613953
0.00469451
0.00405532
0.00401791
0.00292584
0.00211149
0.00140428
0.000993376
0.000333233
1.65858e-05
0.00130819
0
0
0.000652089
0
0.00227499
0
0
0.00094061
0.0337515
0.0252108
0.0630283
0.00805116
0
0
0
0
0
0
0.0981789
0
0
0.115574
0.187209
0.142738
0.150788
0.154852
0.17102
0
0
0
0
0.109354
0.0381778
0.0823393
0.0561018
0.0702162
0
0
0
0.0202832
0
0.0383135
0.0476088
0
0
0
0
0
0
0
0
0.141428
0
0
0
0
0.0641395
0
0.838435
0
0
0.302191
0.460522
0.23732
0.0491637
0
0
0.105681
0
0
0
0.00566857
0.00940461
0
0
0.00125286
0.00740599
0.0141214
0
0
0
0.0180941
0.0167989
0
0.0106219
0.0180078
0
0
0.0669776
0.0170307
0
0
0
0
0
0
0
0
0.0595878
0.0686666
0
0
0
0.339056
0.586185
0.898114
0.78554
0.0611814
0.0275414
0
0.0966368
0
0.0226569
0.0325906
0
0
0
0
0
0
0
0
0
0.016853
0
0
0
0
0
0
0
0
0
0
0.00711294
0.00325375
0
0.00515164
0
0.00694747
0
0
0
0.00132685
0.00569999
0
0.00149413
0.000963709
0
0.00691743
0
0.00245887
0
0.00823561
0
0
0
0.00306707
0
0.00125217
0.00057774
0.00240573
0.00166017
0.0035782
0
0.00297089
0.0017097
0.00209716
0.00183012
0.00296438
0.00206437
0.00269048
0.00260114
0.00294318
0.00362204
0.00360531
0.00327577
0.00364243
0.00437803
0.00473162
0.00471927
0.00483605
0.00542813
0.00587526
0.00597249
0.00607107
0.0081481
0.010339
0.00727966
0.00388159
0.00593882
0.00879634
0.00951425
0.00980895
0.0101917
0.0103662
0.0116769
0.0124862
0.0123778
0.0122204
0.0132689
0.0132122
0.0124192
0.0116169
0.0113064
0.00769387
0.00398242
0
0
0
0
0
0
0
0
0
0
0
0
0
0
0
0
0
0
0
0
0
0
0
0
0
0
0
0
0
0
0
0
0
0
0
0
0
0
0
0
0
0
0
0
0
0
0
0
0
0
0
0
0
0
0
0
0.282619
0
0.75434
0
0
0
0
0
0
0
0
0
0
0
0
0
0
0
0
0
0
0
0.370129
0
0.358644
0.267769
0.775608
0.668957
0.5444
0.314349
0.26722
0
0.136858
0
0.197593
0.0279988
0.172594
0.0352247
0.0383074
0
0
0
0
0
0.00704355
0.00437384
0
0
0
0.00238602
0
0
0
0
0
0
0
0.00085063
0
0
0
0
0
0
0.00234696
0.00991677
0.0476808
0.0777248
0.0769204
0.0925135
0.00698106
0
0.00198251
0.00204786
0.00467257
0.00466482
0.00579978
0.00624505
0.00812856
0.00982638
0.010359
0.0104696
0.0104451
0.010318
0.0103877
0.0103124
0.00994146
0.00993374
0.0111245
0.0114982
0.00886264
0.00701179
0.00786967
0.00853533
0.00693776
0.00533223
0.00468535
0.00451082
0.00360269
0.00242787
0.00174786
0.000735935
0.000318954
0.000359103
8.07724e-05
0.000453628
0
2.11627e-05
0.000647453
0.000314975
0
0
0.00411072
0
0.00494379
0.0301449
0.0110795
0.0445829
0.0913225
0
0
0
0
0.120997
0.00935069
0.0163931
0
0.171856
0.132032
0.147918
0.0941418
0.161062
0
0
0
0
0.0222348
0.00694961
0.0399737
0.0412162
0.0978726
0
0
0
0
0
0.0133593
0.0183526
0.0598754
0
0
0
0
0.346064
0
0
0
0
0
0
0
0.152597
0.114244
0.366232
0
0
0.207832
0.189173
0.209654
0
0
0
0
0.0295135
0
0
0.00551006
0.0401455
0
0.0101652
0.0147539
0.0162849
0.0109365
0.00334725
0.00668715
0.00630768
0.0152353
0.0159733
0
0
0.0155233
0
0
0.0487316
0.0299992
0
0.0186666
0
0
0.00062037
0
0
0
0
0.0832367
0
0
0.175141
0.210509
0.232591
0.859941
0.948494
0.189285
0.136107
0
0.0301185
0.0230157
0.0415042
0.0177867
0
0
0
0.0064166
0
0
0
0
0
0
0
0
0.0247083
0
0
0
0.0065897
0
0
0
0.00717334
0.00216629
0
0.000223655
0.00716481
0.00175498
0
0
0.00219479
0.00255751
0
0
0
0.0011495
0
0.00203085
0
0
0.00214112
0
0.000375877
0
0
0
0.00012777
0.00187402
0.000745458
0.00208737
0.00113048
0.00435656
0.0019543
0.000466461
0.00229185
0.00189147
0.0021375
0.00314328
0.00224465
0.00327209
0.00230343
0.00378937
0.00383559
0.00382252
0.00387721
0.00394419
0.00472065
0.00515411
0.00515825
0.00536697
0.00607841
0.00649298
0.00666139
0.00685024
0.00917516
0.0114506
0.00810982
0.00452523
0.00681498
0.010078
0.0111653
0.0117735
0.0123651
0.0127703
0.0146729
0.0160597
0.0161764
0.0164181
0.0180742
0.018396
0.0180034
0.0174196
0.0174611
0.0116737
0.00792988
0
0
0
0
0
0
0
0
0
0
0
0
0
0
0
0
0
0
0
0
0
0
0
0
0
0
0
0
0
0
0
0
0
0
0
0
0
0
0
0
0
0
0
0
0
0
0
0
0
0
0
0
0
0
0
0
0
0
0.336736
0.444793
0
0
0
0
0
0
0
0
0
0
0
0
0
0
0
0
0
0.0300582
0.0494427
0
0.00845497
0.337688
0.488048
0.490617
0.438843
0.642711
0.423281
0
0.20313
0.116169
0.143288
0.347174
0.415802
0.410591
0.299841
0.237371
0
0
0
0
0
0.00106638
0.00756277
0.0166934
0.0290478
0.00953738
0
0
0
0
0
0
0
0
0
0
0
0
0
0
0.00388447
0.0141525
0.0505355
0.108466
0.10683
0.117976
0.00365591
0
0.00503598
0.0014876
0.00314891
0.00392633
0.0057676
0.00662437
0.00880612
0.0108972
0.0113074
0.011495
0.0114948
0.0114783
0.0114902
0.0113699
0.0109435
0.0109093
0.0121495
0.0124131
0.00952983
0.00772161
0.00869367
0.00963195
0.00780936
0.00599109
0.0054846
0.00511574
0.00410199
0.00268738
0.00236753
0.00101389
0
0.000337865
0.000977131
0
0
0.000292987
0.000918174
0.000405069
0
0.000614943
0
0.00387163
0.016539
0.044635
0.0121107
0.0498456
0
0
0
0
0.195351
0
0.112
0.0313908
0
0.0487974
0.194513
0.138346
0.096051
0.117782
0
0
0
0.0249032
0.0340708
0
0
0.0414104
0.0989178
0.00229274
0
0
0
0
0.0366953
0.0141356
0.000662421
0
0
0
0
0.337635
0
0
0
0.0115656
0
0
0
0.106659
0
0.399198
0.0389527
0
0.0672887
0.0935857
0.26589
0
0
0
0
0
0
0
0.0444668
0
0
0.00358601
0.00417531
0.0347105
0
0.0027931
0.0110575
0
0.0141003
0.0185868
0.00349463
0
0.0200481
0.0151994
0
0
0.0157523
0.0425994
0
0
0
0.00581508
0
0.0184635
0.0133388
0.0163204
0.0789764
0
0
0.0997097
0.0287609
0.139489
0
0.980717
0.534778
0
0
0.0927928
0.0169062
0.0250905
0.0474277
0
0.0021253
0
0
0
0
0
0
0
0
0
0
0
0
0
0
0.0109158
0
0
0
0
0.00388393
0
0
0.0269402
0
0
0.00478766
0
0.00643838
0
0.000700185
0.00245372
0
0.00548467
0
0.00531661
0
0
0
0.000249441
0
0
0.00278849
0
0
0.00480396
0.00188451
0.00180321
0.000350544
0.00447276
0.000592748
0.00156269
0.00290434
0.00279807
0.00215644
0.00344344
0.00316796
0.00253238
0.00413831
0.00411498
0.00389046
0.00423524
0.00426641
0.00499992
0.0055729
0.00570939
0.00555158
0.00650343
0.00694403
0.00719998
0.00752348
0.0101006
0.0127175
0.00904466
0.00517445
0.00792962
0.0117318
0.0130565
0.014077
0.0152702
0.0165664
0.0198077
0.0226023
0.024399
0.0258853
0.0303292
0.0321703
0.0332928
0.035031
0.0376095
0.0380012
0.0118065
0
0
0.0103341
0
0
0
0
0
0
0
0
0
0
0
0
0
0
0
0
0
0
0
0
0
0
0
0
0
0
0
0
0
0
0
0
0
0
0
0
0
0
0
0
0
0
0
0
0
0
0
0
0
0
0
0
0.0285557
0
0.204983
0.723679
0
0
0
0
0
0
0
0
0
0
0
0
0
0
0
0
0
0
0
0.0186594
0.451151
0
0.396472
0.374633
0.747023
0.367149
0.463471
0.332055
0.0932643
0
0.125499
0.119153
0.242481
0.261577
0.244617
0.26167
0.048164
0
0
0.0689157
0.155993
0.0404823
0
0
0
0.229863
0.0442852
0.0394132
0
0
0
0
0
0
0
0
0
0
0
0
0.00173436
0.00966205
0.0235511
0.0641153
0.146649
0.134778
0.157461
0.00339623
0
0.00437949
0.00101982
0.00472724
0.00506226
0.00672874
0.00735061
0.00972251
0.0119746
0.0123929
0.0123869
0.0124068
0.0123194
0.0123054
0.0121892
0.0117341
0.011692
0.0130146
0.0135202
0.0104579
0.00843899
0.00954201
0.0103424
0.00860828
0.00663321
0.00604669
0.00560971
0.00457767
0.00358642
0.0023096
0.000913009
0.000196792
0.000512097
0.000454661
0
0.00132991
0
0.00103725
0
1.86638e-05
0
0
0.00414247
0.000767011
0.00344489
0.0361205
0
0.00809647
0
0
0
0.0216264
0
0.0617902
0.0869717
0
0.102457
0.117478
0.106619
0.0814753
0.0888155
0.0208029
0
0
0
0.0739289
0.0251951
0.0260327
0.026349
0.0846206
0.00516941
0
0
0
0
0.0614961
0
0.0482073
0
0
0
0
0
0
0
0
0
0.0116433
0
0.026405
0
0.020386
0.420053
0
0
0
0
0.502371
0
0
0
0
0.0186909
0
0
0.0202508
0.0421768
0.000252525
0
0
0
0.0102152
0
0.00581863
0.0180837
0.0213795
0.0132521
0.0200808
0
0.0146027
0.0110329
0
0
0.0161233
0.0398527
0
0.0054991
0
0
0
0
0
0
0.0107615
0
0
0
0
0.0490255
0
0.846035
0.884871
0
0.410142
0.110673
0.0519185
0.0453943
0.011074
0.0202324
0.0103731
0
0
0
0
0
0
0
0
0.00133493
0
0
0.00767059
0
0
0
0
0
0
0.00878516
0
0.00756867
0
0.00674536
0
0
0.0118564
0
0
0
0
0
0
0.00268036
0
0.00159953
0
0
0.000939324
0
0
0
0.00264797
0.0013036
0
0.00313923
0.00137057
0.00342961
0.00276269
0.000472991
0.0036458
0.00199257
0.00230385
0.00276564
0.00283129
0.00336021
0.00310088
0.00327927
0.00377432
0.0043233
0.00430235
0.00393613
0.00437671
0.00510804
0.00546252
0.00562573
0.00591439
0.00661075
0.00726083
0.00763613
0.00813788
0.0110522
0.0139932
0.0104759
0.00657763
0.0101982
0.0157444
0.0188728
0.0227994
0.0266907
0.0310586
0.0406131
0.0530754
0.0586903
0.0744588
0.100369
0.0939864
0.143139
0.134293
0.222469
0.0301867
0.226265
0
0
0.00789479
0
0
0
0
0
0
0
0
0
0
0
0
0
0
0
0
0
0
0
0
0
0
0
0
0
0
0
0
0
0
0
0
0
0
0
0
0
0
0
0
0
0
0
0
0
0
0
0
0
0
0
0
0
0.432355
0
0.747292
0.755307
0.251726
0
0
0
0
0
0
0
0
0
0
0
0
0
0
0
0
0
0
0
0.480776
0.157456
0.204197
0.404531
0.612718
0.445519
0.454789
0
0.239328
0.0108929
0.264052
0.185047
0.430125
0.29382
0.360322
0.152122
0
0
0
0
0.387867
0
0.076288
0
0.351994
0.0820157
0.193118
0
0
0
0
0
0
0.0471193
0
0.0056081
0
0.0270183
0.00455012
0
0.046762
0.042227
0.168424
0.256316
0.217306
0.234869
0.00973488
0
0.00575471
0.00155701
0.0057903
0.00698047
0.00884022
0.0090269
0.0111627
0.0136027
0.0136269
0.0129786
0.0129165
0.0129184
0.0127447
0.0125612
0.0121199
0.0121082
0.0134901
0.0138967
0.0108958
0.00905475
0.0102032
0.0113243
0.00955877
0.00748426
0.00673185
0.00637864
0.00479908
0.00396551
0.00322519
0.000909884
0
0.000578601
7.48636e-06
2.05965e-05
0.000284034
0
0.000404221
0.00059155
0
0
0.000635652
0
0.00296436
0.00231762
0.00243612
0
0.00825153
0
0
0
0.0392043
0
0.0146134
0.132441
0
0.0316072
0.101991
0.0978413
0.0969667
0.0801138
0.0202425
0
0
0.00333426
0.0670675
0.00815589
0.000517953
0.0304388
0.0599797
0.0319096
0.0408633
0
0
0
0
0.0540969
0
0
0
0
0
0.321108
0
0
0
0.00190988
0.00800095
0.0221507
0.158852
0
0.819161
0.558166
0
0.00283806
0
0
0
0
0
0
0
0
0
0
0.0293269
0
0.0152389
0
0.0137667
0.00246372
0
0.00896594
0.0260948
0
0.0222206
0.0174427
0
0
0.0216743
0.00777783
0.0570938
0.163776
0.00206881
0
0
0
0
0
0
0
0
0.0190464
0.0288572
0
0
0
0
0.182739
0
0
0.137455
0
0.9089
0.530653
0.11959
0.0805294
0.0305343
0.0295266
0
0
0
0.0153434
0
0
0
0
0
0
0.00170803
0
0
0
0
0
0.00284937
0
0
0
0
0
0
0
0.00671162
0
0
0
0
0.0107259
0
0
0.00369
0
0.00426464
0
0
0
5.23034e-05
0.000493762
0
0.000364284
0
0.0020121
0.000627298
0.00143036
0.0023869
0.00183227
0.00464408
0.000562596
0.00264018
0.00282965
0.00144981
0.00263216
0.00335354
0.00282379
0.00273182
0.00360258
0.00316568
0.00423092
0.00422858
0.0039299
0.00437736
0.00542341
0.00597501
0.00637754
0.00668847
0.00785417
0.00921628
0.0104375
0.0116929
0.0171067
0.024329
0.0204629
0.0143557
0.0238149
0.0377243
0.0503631
0.0574753
0.0882325
0.112577
0.169061
0.206404
0.245458
0.295857
0.402754
0.321245
0.446936
0.343534
0.486891
0.100044
0.321898
0
0
0.0445093
0
0
0
0
0
0
0
0
0
0
0
0
0
0
0
0
0
0
0
0
0
0
0
0
0
0
0
0
0
0
0
0
0
0
0
0
0
0
0
0
0
0
0
0
0
0
0
0
0
0
0
0
0
0.343594
0.244087
0.917568
0
0
0
0
0
0
0
0
0
0
0
0
0
0
0
0
0
0
0
0
0
0.437055
0
0.710308
0.535595
0.66078
0.396173
0.252504
0.0652159
0
0
0.210998
0.132093
0.372367
0.188427
0.233517
0.100075
0
0
0
0
0
0
0.115615
0.155309
0.178323
0.0909363
0.0640484
0
0
0
0
0
0
0
0
0.127986
0
0.139537
0.00639624
0.0668422
0
0.221493
0.521825
0.480193
0.358217
0.435358
0.00654764
0
0.0201105
0.00803273
0.0100538
0.01087
0.0133896
0.0143229
0.0165448
0.0184579
0.0184719
0.0162611
0.0145144
0.0139089
0.0132077
0.0126263
0.0117758
0.0114973
0.0126775
0.0131725
0.0107064
0.00895628
0.0102473
0.0113392
0.0100091
0.0079858
0.00763596
0.00695662
0.0058285
0.00405714
0.0035744
0.00176066
0
0.000976235
0.00044702
0.000194181
0
0
0
0.00118065
0
0
0
0
0.00417712
0.00143486
0.000299488
0.00127173
0
0.0104626
0.00418478
0
0
0
0
0.0796334
0.148082
0
0.155954
0
0.183631
0
0.0444409
0
0
0
0.0457127
0.11037
0.0138399
0
0.0309673
0.0336879
0.0201846
0
0
0.0120458
0
0.130965
0
0.100536
0
0
0
0
0
0
0
0
0
0
0
0
0.805531
0.769318
0.0286781
0.0147613
0.095806
0
0
0.200706
0.220502
0
0
0
0
0
0.0184389
0.0299929
0
0.0207722
0.000436819
0
0
0.00121145
0.0170542
0.0574023
0.0293713
0.0122282
0.0213688
0
0.00942182
0
0
0
0.0263124
0
0.0299943
0
0.0123231
0.0117115
0.0135644
0
0.135503
0.0449677
0.0367381
0
0
0
0
0.310874
0
0
0
0
0.878895
0.740701
0.521892
0.262446
0.0327273
0.0416354
0
0
0
0
0
0
0
0
0.00467546
0
0.0233524
0
0
0
0
0.00824575
0
0.00414119
0
0
0.00305103
0
0.00709744
0
0.00479776
0.00419073
0
0.00363176
0
0
0.0010495
0
0.00267382
0
0
0
0
0
0
0
0
0
0
0
0.00322442
0.0022882
0.00243705
0
0.002083
0.00417864
0.000653519
0.0019758
0.002199
0.00340389
0.00289419
0.00361017
0.00338055
0.00416334
0.00469934
0.00597784
0.00595307
0.00650018
0.00697822
0.0092779
0.0107857
0.0122745
0.0144448
0.017735
0.0222752
0.0261884
0.0326832
0.0576748
0.0786993
0.0626782
0.0606428
0.109209
0.15027
0.247398
0.220476
0.275953
0.343382
0.426987
0.379809
0.447662
0.458043
0.489507
0.386449
0.452933
0.344824
0.42854
0.137471
0.359654
0
0
0.0225676
0
0
0
0
0
0
0
0
0
0
0
0
0
0
0
0
0
0
0
0
0
0
0
0
0
0
0
0
0
0
0
0
0
0
0
0
0
0
0
0
0
0
0
0
0
0
0
0
0
0
0
0
0
0.448416
0.134452
0.732755
0.403765
0.735351
0
0
0
0
0
0
0
0
0
0
0
0
0
0
0
0
0
0
0
0.258296
0
0.0363591
0.39483
0.476297
0.434604
0.402697
0.172286
0
0
0
0.0315607
0.331493
0.169737
0.100717
0.202508
0
0
0
0.097001
0
0
0
0.183895
0.0895285
0.209277
0.143998
0
0
0
0
0
0.0130271
0
0
0
0.164991
0.150887
0.151247
0.203686
0.00363596
0.522852
0.813107
0.790917
0.554474
0.782851
0.00172447
0
0.061852
0.0417477
0.0385184
0.0372175
0.0373453
0.0386593
0.0425986
0.045764
0.0413262
0.0355435
0.0294886
0.025778
0.0227854
0.0197761
0.0171334
0.0146885
0.0145202
0.0132357
0.00979736
0.00762071
0.00888199
0.0102444
0.00954571
0.00804989
0.00779466
0.00756016
0.00658208
0.00490089
0.00336486
0.00226082
0.00043313
0.000644301
0.000284669
0.000939678
0
4.36211e-05
0
0.000156839
0.00024327
0
0
0.000894881
0
0.000144938
0.0042799
0.00167259
0
0.00103242
0.00168681
0
0
0.0449011
0
0
0.0066815
0.0107079
0.132509
0.09004
0.0937165
0.0987012
0.0226793
0
0
0
0.0904513
0.0321534
0
0.0222495
0.0542719
0.0592356
0
0
0
0.118297
0.010387
0.147506
0.0249916
0.0744511
0
0
0
0
0
0
0
0
0
0
0
0.167507
0.545831
0.696591
0.0304261
0
0.210091
0.00316237
0
0.185654
0
0.0642899
0
0
0
0
0.0243219
0
0
0.00720143
0
0
0.0306801
0.014446
0
0.0210369
0.0367426
0.0154819
0
0
0.020041
0.0208533
0
0.0118273
0.0183964
0.0978718
0.022674
0
0
0
0
0
0
0.0718404
0.0165061
0
0
0
0.124543
0.755278
0.728036
0
0
0
0.929605
0.683651
0.593816
0.651287
0.40288
0
0
0
0
0
0
0
0
0
0.0490152
0.0429789
0
0
0
0
0
0
0
0
0
0.0163809
0
0.000387405
0
0.00513475
0
0
0.00435734
0
0.000826311
0
0
0.00863347
0
0
0
0
0
0
0.000338292
0
0.00388837
0
0.002336
0.00116505
0.00160215
0.00276752
0.00359023
0.00306717
0.00289241
0.00504702
0.00225643
0.00453853
0.0047354
0.00541955
0.00559925
0.0084006
0.00846101
0.00807195
0.0127194
0.0141681
0.0157524
0.0180679
0.0208012
0.0302451
0.034774
0.0498157
0.0502308
0.072827
0.0948841
0.0960394
0.135689
0.222257
0.259899
0.175425
0.180062
0.26346
0.283348
0.363041
0.392471
0.431908
0.431066
0.469746
0.472977
0.503625
0.491556
0.516025
0.437323
0.408643
0.369862
0.382166
0.187511
0.288242
0
0
0.0482191
0
0
0
0
0
0
0
0
0
0
0
0
0
0
0
0
0
0
0
0
0
0
0
0
0
0
0
0
0
0
0
0
0
0
0
0
0
0
0
0
0
0
0
0
0
0
0
0
0
0
0
0
0
0.399685
0.294928
0.909761
0
0
0
0
0
0
0
0
0
0
0
0
0
0
0
0
0
0
0
0
0
0.219445
0.452909
0
0.664117
0.57362
0.333638
0.339342
0.106974
0
0.235153
0
0.0427355
0
0.292636
0.0371294
0.149519
0
0
0
0
0
0.200591
0.00185145
0.172316
0.0562708
0.242868
0.0522636
0
0
0
0
0
0
0.12213
0
0
0.0725051
0.0885105
0.0354132
0.208685
0.127394
0.461444
0.767783
0.945699
0.74399
0.947937
0.0197426
0
0.208177
0.0320598
0.172684
0.0922886
0.162863
0.125968
0.147253
0.161296
0.15833
0.131012
0.115253
0.0866481
0.0739931
0.0581433
0.047694
0.0373564
0.0314849
0.0266507
0.0180133
0.0114485
0.0106342
0.0100533
0.00829116
0.00693187
0.00676682
0.00711263
0.00660475
0.00551342
0.00401345
0.00293088
0.000114242
0.000260448
0.00176834
0
0
0.000369433
0
0.000901888
0
0
0
0
0.00219181
0.00166107
0.00166405
0.00167237
0.00174177
0
0
0
0
0.0139696
0
0
0.0332001
0
0.0158543
0.00903268
0.0359294
0.0793332
0
0
0
0
0
0.177404
0.128103
0
0
0.126137
0.0927692
0.0700349
0
0.0775291
0
0.107744
0.0515596
0
0
0
0
0
0
0
0
0
0
0.00856999
0.00600436
0.716029
0.400103
0.673271
0.0207764
0
0.171191
0.102647
0.0144758
0.0250791
0.0229759
0
0.00892021
0
0.0857197
0
0
0.0233175
0
0.00384089
0
0.0110264
0.00971638
0.0025216
0
0
0.00339706
0.0083219
0
0.0762606
0.00555907
0
0.00480007
0
0.0302104
0
0
0
0
0
0
0
0.0553862
0.0142034
0
0
0.0866135
0
0.261531
0.890588
0.881542
0.904598
0.184624
0.0124669
0.914589
0.772832
0.599092
0.589293
0
0
0
0
0
0.086716
0
0.0943153
0
0.420467
0
0
0
0
0
0
0.0208911
0
0
0
0
0
0.000937771
0
0
0.0339598
0
0
0.0230802
0
0
0.00447126
0
0.00512648
0
0
0
0
0
0
0.00223463
0
0.00108377
0
0.00474005
0.00503949
0
0.00824811
0.00881961
0.0122359
0.0126666
0.00457721
0.0142478
0.0109608
0.00938767
0.0185065
0.0201207
0.0251677
0.0284972
0.0283728
0.0438935
0.0506482
0.0616661
0.0632673
0.0867933
0.114831
0.119778
0.168996
0.147164
0.201541
0.218853
0.238018
0.2834
0.37914
0.395708
0.282879
0.271786
0.338239
0.349717
0.419532
0.433562
0.44361
0.435671
0.470579
0.4722
0.498161
0.476249
0.470211
0.442557
0.388414
0.404475
0.333269
0.218426
0.257243
0
0
0.0202634
0
0
0
0
0
0
0
0
0
0
0
0
0
0
0
0
0
0
0
0
0
0
0
0
0
0
0
0
0
0
0
0
0
0
0
0
0
0
0
0
0
0
0
0
0
0
0
0
0
0
0
0
0.0818104
0.487792
0.232793
0.850465
0.468681
0.840045
0
0
0
0
0
0
0
0
0
0
0
0
0
0
0
0
0
0
0
0
0
0
0.0907931
0.507918
0.535898
0.423419
0.426575
0.101093
0
0
0.375114
0.0692298
0.304481
0.0740583
0.0500744
0
0
0.124039
0
0
0
0.273904
0.33548
0.108873
0.299272
0.0842962
0
0
0
0
0
0
0.0401878
0.166706
0.18636
0
0.120207
0
0.213075
0.210431
0.476718
0.706224
0.955778
0.911653
0.97328
0
0
0.364458
0.0517859
0.27238
0.151934
0.314604
0.228771
0.312445
0.334687
0.381653
0.31718
0.290016
0.227625
0.222062
0.191252
0.16787
0.145821
0.122662
0.0874664
0.0649696
0.0349816
0.0282925
0.0233627
0.0145813
0.00917602
0.00727377
0.00657422
0.00575451
0.0048081
0.00411187
0.00324557
0.00109669
0.00071687
0.00323054
0.00010318
0
0
0.000490151
0.000263947
9.12677e-05
0
0
0.00092813
0.000984753
0.00363642
0
0.000258775
0.000647921
0
0
0
0
0.000592772
0.00884513
0
0.00800236
0
0.0175735
0.00765321
0.0215005
0.0370866
0
0
0
0
0.0128714
0.00767776
0.0594016
0.00504425
0
0.0477208
0.0257602
0.104426
0.0615964
0.0750039
0.0269541
0.135736
0
0.0193599
0
0
0
0
0
0
0
0.0044387
0
0
0
0.212093
0.198465
0.905043
0.0388081
0
0
0.150908
0.0265046
0
0
0
0
0
0.00120223
0
0.0425841
0.0146262
0.000593545
0
0
0.0329555
0
0.016021
0.00838002
0.0431619
0.0119482
0.017167
0.153886
0
0.0186152
0.00673057
0.00848552
0.0131775
0.0141662
0
0
0
0
0
0
0
0
0.0310898
0
0
0.0539342
0
0.317675
0.871195
0.900241
0.962602
0.737401
0
0.868824
0.709825
0.296559
0
0
0
0
0
0.273657
0
0.203277
0
0.360028
0.0261741
0
0
0
0
0
0
0.454558
0
0
0.0259981
0.0986675
0
0
0
0.101507
0.054416
0.0879438
0
0
0
0.0295114
0
0
0
0
0
0
0
0
0
0
0.0170508
0
0.0184688
0.00973509
0
0.0173989
0.0236756
0.0386175
0.0238615
0.0490073
0.0307785
0.0296559
0.0371743
0.0395181
0.0639359
0.0664359
0.0806453
0.066077
0.119258
0.12817
0.139958
0.164377
0.150475
0.193894
0.207855
0.222405
0.257846
0.242408
0.293131
0.302681
0.314315
0.337222
0.435502
0.426798
0.282107
0.273004
0.356037
0.368842
0.429678
0.430381
0.442015
0.459816
0.500309
0.48574
0.462273
0.454525
0.497311
0.460132
0.445573
0.35956
0.32914
0.244065
0.274262
0
0
0.0322589
0
0
0
0
0
0
0
0
0
0
0
0
0
0
0
0
0
0
0
0
0
0
0
0
0
0
0
0
0
0
0
0
0
0
0
0
0
0
0
0
0
0
0
0
0
0
0
0
0
0
0
0.0512891
0.156084
0.48543
0.38557
0.908656
0.134151
0
0
0
0
0
0
0
0
0
0
0
0
0
0
0
0
0
0
0
0
0
0
0
0.315222
0.406846
0.406139
0.437319
0.151262
0
0.177587
0
0
0.0894178
0.252993
0.0197413
0.228756
0
0
0
0.0179565
0
0
0.0168532
0.228107
0.143427
0.214782
0.0746967
0
0
0
0
0
0
0
0.0960861
0.162502
0.0151062
0.088443
0.0263802
0.0950261
0.181262
0.426994
0.681748
0.954949
0.962452
0.977346
0
0
0.447924
0.13819
0.312148
0.196691
0.399925
0.30966
0.446056
0.480317
0.58246
0.508245
0.472371
0.41519
0.434997
0.415779
0.368606
0.314006
0.248082
0.188766
0.174206
0.113505
0.0972287
0.0714574
0.0501593
0.0266359
0.0170144
0.0108256
0.00770107
0.00489742
0.00324725
0.00250772
0.000686931
0.00152501
0.00186536
0.000980969
0.000265565
0
0
0.000372143
0
0
0
0
0.000556852
0.001489
0.00198774
0
0
0
0
0
0
0
0.00872806
0
0
0.00402071
0.00997366
0.0464058
0
0.044369
0
0
0
0.0511541
0
0.010753
0
0.00676994
0.0734148
0.0353359
0.0208401
0
0.0209153
0
0.0730739
0
0.0510944
0
0
0
0
0
0
0
0
0
0
0.00890207
0
0.089297
0.0880248
0.763649
0.0575732
0.0415158
0
0.014574
0.0283184
0
0
0.0424966
0
0
0
0
0.0130058
0.0409986
0.00824856
0.0036446
0.0129628
0
0.00932296
0
0.0101388
0
0
0.00780853
0
0.0652042
0
0.00561657
0
0
0.0225316
0.0122281
0.0725183
0
0
0
0
0
0
0
0
0
0
0.0781611
0.343048
0.397539
0.646105
0.971968
0
0
0.772905
0.614403
0.0390047
0
0
0
0
0.243369
0.00226655
0.30365
0.237351
0.169684
0.382898
0.384459
0.0122036
0
0
0
0
0
0.193942
0
0
0
0
0.156306
0
0
0
0.196421
0.132979
0
0
0
0
0.0120561
0
0
0
0
0
0
0
0
0
0
0
0.0426676
0
0.0514698
0.0329704
0.0660262
0.115571
0.0844357
0.0609476
0.121457
0.0735083
0.0598992