/*--------------------------------*- C++ -*----------------------------------*\
| =========                 |                                                 |
| \\      /  F ield         | OpenFOAM: The Open Source CFD Toolbox           |
|  \\    /   O peration     | Version:  v2006                                 |
|   \\  /    A nd           | Website:  www.openfoam.com                      |
|    \\/     M anipulation  |                                                 |
\*---------------------------------------------------------------------------*/
FoamFile
{
    version     2.0;
    format      ascii;
    class       volScalarField;
    location    "50";
    object      nut;
}
// * * * * * * * * * * * * * * * * * * * * * * * * * * * * * * * * * * * * * //

dimensions      [0 2 -1 0 0 0 0];


internalField   nonuniform List<scalar> 
93840
(
2.81055e-08
2.82965e-08
2.77954e-08
2.77903e-08
2.8564e-08
2.82844e-08
2.94087e-08
2.88868e-08
2.9752e-08
2.97114e-08
2.97695e-08
3.00327e-08
2.9874e-08
2.99309e-08
2.9631e-08
2.98616e-08
2.94879e-08
3.0266e-08
3.17459e-08
2.85126e-08
3.54532e-08
1.59302e-07
7.21305e-07
1.2211e-06
1.64986e-06
8.29632e-07
1.35113e-06
5.30499e-06
1.01085e-05
1.07597e-05
1.21303e-05
1.14469e-05
1.22689e-05
1.09512e-05
1.16612e-05
1.08489e-05
1.09165e-05
1.07541e-05
1.04384e-05
1.04942e-05
1.00955e-05
1.02338e-05
9.76703e-06
9.9041e-06
9.45855e-06
9.60577e-06
9.1991e-06
9.24472e-06
8.93048e-06
9.00404e-06
8.68971e-06
8.68072e-06
8.45792e-06
8.42563e-06
8.29036e-06
8.19254e-06
8.10785e-06
8.00097e-06
7.84255e-06
7.82909e-06
7.65539e-06
7.64448e-06
7.51699e-06
7.51047e-06
7.42473e-06
7.39687e-06
7.37611e-06
7.33865e-06
7.35624e-06
7.33874e-06
7.35936e-06
7.41431e-06
7.42734e-06
7.48929e-06
7.54406e-06
7.5924e-06
7.64189e-06
7.72002e-06
7.78328e-06
7.91404e-06
8.05849e-06
8.1774e-06
8.29293e-06
8.40982e-06
8.553e-06
8.67209e-06
8.83344e-06
8.99566e-06
9.1705e-06
9.36701e-06
9.58662e-06
9.83863e-06
1.009e-05
1.03228e-05
1.06012e-05
1.08882e-05
1.11751e-05
1.14318e-05
1.17164e-05
1.20115e-05
1.23031e-05
1.25556e-05
1.28429e-05
1.33171e-05
1.37374e-05
1.38841e-05
1.4039e-05
1.43708e-05
1.47367e-05
1.50945e-05
1.54481e-05
1.58008e-05
1.61529e-05
1.65657e-05
1.69446e-05
1.73232e-05
1.76745e-05
1.80791e-05
1.84162e-05
1.87667e-05
1.90541e-05
1.93671e-05
1.95247e-05
1.9729e-05
1.97317e-05
1.9775e-05
1.98196e-05
1.96191e-05
1.97193e-05
1.96071e-05
1.9485e-05
1.94003e-05
1.92647e-05
1.92187e-05
1.91158e-05
1.90058e-05
1.88852e-05
1.88335e-05
1.87317e-05
1.86935e-05
1.86426e-05
1.85515e-05
1.84849e-05
1.83863e-05
1.83657e-05
1.82902e-05
1.82626e-05
1.81883e-05
1.81206e-05
1.80311e-05
1.79627e-05
1.78698e-05
1.77719e-05
1.76575e-05
1.75352e-05
1.74003e-05
1.72519e-05
1.70858e-05
1.68904e-05
1.66962e-05
1.65157e-05
1.63299e-05
1.61008e-05
1.58557e-05
1.55233e-05
1.5099e-05
1.45517e-05
1.39135e-05
1.32953e-05
1.28209e-05
1.1545e-05
7.44886e-06
1.57563e-06
4.33691e-06
8.77113e-06
3.57902e-06
5.19594e-09
3.33831e-07
1.19841e-06
8.83461e-07
4.27752e-10
4.07308e-08
3.89898e-07
4.47195e-07
1.33911e-07
2.65787e-08
1.75744e-09
2.25594e-06
7.58852e-06
3.40078e-06
2.35562e-08
1.33821e-05
2.33491e-05
2.07883e-05
1.97447e-05
2.34499e-05
2.71134e-05
2.88773e-05
2.95559e-05
2.9747e-05
2.95903e-05
2.94958e-05
2.92731e-05
2.91787e-05
2.89683e-05
2.88404e-05
2.85654e-05
2.83926e-05
2.80669e-05
2.79154e-05
2.76913e-05
2.759e-05
2.73763e-05
2.72926e-05
2.70453e-05
2.69309e-05
2.66751e-05
2.65838e-05
2.63631e-05
2.62565e-05
2.62792e-05
2.63124e-05
2.611e-05
2.6049e-05
2.58222e-05
2.57597e-05
2.55292e-05
2.5469e-05
2.51954e-05
2.5108e-05
2.49389e-05
2.50582e-05
2.50197e-05
2.50981e-05
2.50651e-05
2.50545e-05
2.48553e-05
2.48512e-05
2.46184e-05
2.46248e-05
2.43896e-05
2.43855e-05
2.4158e-05
2.41398e-05
2.38173e-05
2.3561e-05
2.29469e-05
2.05935e-05
1.74601e-05
1.68225e-05
1.75649e-05
1.73691e-05
1.74522e-05
1.73069e-05
1.71907e-05
1.69747e-05
1.67834e-05
1.65286e-05
1.6174e-05
1.58168e-05
1.54495e-05
1.50108e-05
1.45982e-05
1.41729e-05
1.37284e-05
1.32782e-05
1.28521e-05
1.23724e-05
1.1707e-05
1.09708e-05
1.0491e-05
9.96969e-06
9.18252e-06
8.20734e-06
7.48529e-06
6.4598e-06
4.97516e-06
3.45286e-06
2.23186e-06
9.89477e-07
3.39731e-07
8.4275e-08
5.49041e-08
4.15173e-08
3.81451e-08
3.13613e-08
2.78049e-08
2.66451e-08
2.58734e-08
2.47326e-08
2.50688e-08
2.25801e-08
2.29961e-08
2.30079e-08
2.65101e-08
2.62836e-08
2.25633e-08
1.95554e-08
1.7171e-08
1.88264e-08
1.97394e-08
2.01956e-08
2.18939e-08
3.50767e-08
4.98699e-08
6.01801e-08
7.09169e-08
7.51032e-08
1.07854e-07
7.99613e-08
7.45955e-08
9.96984e-08
1.07611e-07
1.22498e-07
1.47063e-07
1.83469e-07
2.1481e-07
3.35839e-07
4.5291e-07
6.16591e-07
6.72207e-07
7.33171e-07
7.49921e-07
7.14693e-07
6.26996e-07
4.94956e-07
3.75799e-07
3.36536e-07
2.81006e-07
2.05443e-07
1.14291e-07
1.70379e-07
4.32955e-07
3.13958e-07
8.04307e-07
2.43338e-07
4.91945e-06
1.07097e-05
1.11378e-05
1.41134e-05
1.19319e-05
4.20659e-06
2.06747e-06
1.38823e-06
1.23532e-06
4.40722e-07
3.87569e-08
2.94245e-08
3.3412e-08
2.87821e-08
2.97366e-08
3.04886e-08
3.00718e-08
2.97646e-08
2.97005e-08
3.00074e-08
2.9799e-08
3.01053e-08
2.99749e-08
3.00158e-08
2.90804e-08
2.93633e-08
2.82547e-08
2.85331e-08
2.77147e-08
2.77031e-08
2.82921e-08
2.79784e-08
2.79404e-08
2.82522e-08
2.76806e-08
2.77223e-08
2.84842e-08
2.8177e-08
2.92652e-08
2.89848e-08
2.9784e-08
2.91818e-08
2.97718e-08
2.96925e-08
2.97576e-08
2.96177e-08
3.00112e-08
2.99343e-08
2.99694e-08
3.22042e-08
3.42218e-08
3.91405e-08
6.31323e-08
6.74504e-08
9.72286e-09
2.14787e-07
2.0579e-06
2.58581e-06
1.19027e-06
8.14013e-07
3.71992e-06
5.01567e-06
6.71941e-06
7.06522e-06
7.331e-06
7.18384e-06
7.53833e-06
7.18649e-06
7.26904e-06
7.36399e-06
7.3798e-06
7.408e-06
7.31155e-06
7.43813e-06
7.25594e-06
7.36879e-06
7.32673e-06
7.44503e-06
7.32365e-06
6.9239e-06
7.39723e-06
7.32401e-06
7.10883e-06
7.15864e-06
7.30487e-06
7.13122e-06
7.13557e-06
7.07976e-06
7.23468e-06
7.14785e-06
7.28243e-06
7.16325e-06
7.23443e-06
7.10671e-06
7.2956e-06
7.0137e-06
7.22642e-06
7.11579e-06
7.19138e-06
6.98589e-06
7.43522e-06
7.28715e-06
7.58618e-06
7.78649e-06
7.9047e-06
8.12641e-06
8.25593e-06
8.30941e-06
8.37609e-06
8.33035e-06
8.46119e-06
8.83312e-06
9.42184e-06
9.75127e-06
9.89321e-06
9.86765e-06
1.00669e-05
1.00906e-05
1.02017e-05
1.05441e-05
1.07695e-05
1.11551e-05
1.14466e-05
1.19404e-05
1.24796e-05
1.2701e-05
1.33224e-05
1.38957e-05
1.44516e-05
1.48581e-05
1.5321e-05
1.58463e-05
1.62413e-05
1.64754e-05
1.67745e-05
1.72516e-05
1.74777e-05
1.76924e-05
1.79619e-05
1.80693e-05
1.82557e-05
1.84169e-05
1.85426e-05
1.86541e-05
1.87543e-05
1.88149e-05
1.88804e-05
1.89498e-05
1.89707e-05
1.90175e-05
1.89911e-05
1.89767e-05
1.8912e-05
1.88616e-05
1.87431e-05
1.86476e-05
1.84872e-05
1.83957e-05
1.82036e-05
1.80801e-05
1.79253e-05
1.77338e-05
1.75889e-05
1.74042e-05
1.72413e-05
1.70571e-05
1.68632e-05
1.66794e-05
1.64789e-05
1.62951e-05
1.6086e-05
1.58991e-05
1.56749e-05
1.5488e-05
1.52731e-05
1.50926e-05
1.4876e-05
1.46694e-05
1.44423e-05
1.42169e-05
1.39762e-05
1.37353e-05
1.34723e-05
1.31912e-05
1.28911e-05
1.25627e-05
1.22013e-05
1.18086e-05
1.1372e-05
1.08753e-05
1.02713e-05
9.53386e-06
8.69213e-06
7.93561e-06
7.39369e-06
6.8065e-06
5.65144e-06
3.8829e-06
2.25508e-06
1.69195e-06
2.20419e-06
2.62483e-06
1.94143e-06
3.28188e-07
5.97808e-08
9.15092e-17
5.53603e-08
4.55247e-08
3.44172e-08
4.45896e-08
7.8444e-09
2.08965e-08
1.17807e-07
1.27592e-07
1.74836e-09
3.53179e-08
1.42528e-07
7.65072e-08
1.51515e-08
3.45818e-08
4.98554e-08
1.12154e-08
2.05123e-09
6.62244e-07
3.16963e-06
2.89063e-06
7.59255e-07
1.44021e-06
5.38288e-06
8.93751e-06
1.02719e-05
1.10021e-05
1.23543e-05
1.42001e-05
1.55149e-05
1.65491e-05
1.7359e-05
1.8284e-05
1.90531e-05
1.98035e-05
2.03119e-05
2.07839e-05
2.10511e-05
2.13694e-05
2.15461e-05
2.17957e-05
2.19087e-05
2.2103e-05
2.21838e-05
2.2363e-05
2.24483e-05
2.26398e-05
2.26686e-05
2.28722e-05
2.29371e-05
2.31386e-05
2.31873e-05
2.33713e-05
2.34261e-05
2.35878e-05
2.36749e-05
2.38021e-05
2.39042e-05
2.39822e-05
2.40856e-05
2.41527e-05
2.42606e-05
2.43612e-05
2.44504e-05
2.46835e-05
2.46057e-05
2.49981e-05
2.47713e-05
2.51649e-05
2.48636e-05
2.54591e-05
2.45262e-05
2.56205e-05
2.55087e-05
2.3279e-05
2.47084e-05
2.60266e-05
2.58927e-05
2.52525e-05
2.46132e-05
2.3913e-05
2.32897e-05
2.26457e-05
2.21632e-05
2.16978e-05
2.11915e-05
2.11084e-05
2.09758e-05
2.04708e-05
2.01112e-05
1.98544e-05
1.94871e-05
1.92171e-05
1.88929e-05
1.85189e-05
1.79712e-05
1.70775e-05
1.60556e-05
1.49645e-05
1.34483e-05
1.16392e-05
1.0431e-05
8.67636e-06
7.09376e-06
6.00343e-06
5.45247e-06
4.93223e-06
4.65958e-06
4.17452e-06
3.73335e-06
3.08541e-06
2.73623e-06
2.34719e-06
2.09795e-06
2.02458e-06
1.9598e-06
1.75713e-06
1.57749e-06
1.53331e-06
1.52703e-06
1.47634e-06
1.55585e-06
1.53668e-06
1.34516e-06
1.17976e-06
1.03228e-06
1.06451e-06
1.04414e-06
1.05485e-06
1.10642e-06
1.36958e-06
1.59519e-06
1.72863e-06
1.96128e-06
2.12387e-06
2.6443e-06
2.56297e-06
2.20501e-06
2.14119e-06
2.07858e-06
1.83384e-06
1.50033e-06
1.12758e-06
9.26642e-07
4.89737e-07
3.15459e-07
3.4131e-07
3.42939e-07
3.34838e-07
3.73954e-07
1.51443e-07
2.17682e-07
3.43343e-07
5.06523e-07
4.01822e-07
3.29405e-07
7.21089e-07
1.22127e-06
1.28841e-06
1.64691e-06
2.08291e-06
2.30337e-06
3.61291e-06
6.32604e-06
6.97012e-06
1.31958e-05
1.36324e-05
1.65818e-05
8.78775e-06
8.20155e-06
4.85238e-06
1.26872e-06
6.71795e-09
1.02748e-08
2.73763e-08
2.99746e-08
3.24354e-08
3.22727e-08
3.07959e-08
3.01841e-08
3.00124e-08
3.0077e-08
3.00023e-08
3.01942e-08
2.98995e-08
3.02267e-08
2.97908e-08
2.89942e-08
2.96929e-08
2.83078e-08
2.85492e-08
2.77478e-08
2.77388e-08
2.83013e-08
2.80544e-08
2.80978e-08
2.83254e-08
2.77742e-08
2.77577e-08
2.85069e-08
2.83082e-08
2.92314e-08
2.91415e-08
2.93992e-08
2.96395e-08
2.96678e-08
2.99273e-08
2.99095e-08
3.02503e-08
2.99625e-08
3.04734e-08
3.07746e-08
3.01421e-08
2.87729e-08
3.27969e-08
2.96325e-08
8.17276e-09
1.56713e-08
3.39772e-07
1.43862e-06
3.01891e-06
3.39164e-06
2.76939e-06
2.19417e-06
3.54911e-06
3.67775e-06
4.31173e-06
4.21295e-06
4.68346e-06
4.44137e-06
4.68156e-06
4.52945e-06
4.98284e-06
4.92165e-06
5.33699e-06
5.14023e-06
5.37237e-06
5.26861e-06
5.47186e-06
5.43144e-06
5.64093e-06
5.4691e-06
5.34918e-06
5.67086e-06
6.07544e-06
5.54575e-06
5.96148e-06
6.09469e-06
5.94084e-06
5.95427e-06
6.18694e-06
6.63343e-06
6.57494e-06
6.47947e-06
6.48613e-06
6.69201e-06
6.66054e-06
6.61569e-06
6.39762e-06
6.78731e-06
6.4883e-06
6.60622e-06
6.62903e-06
7.35378e-06
7.21126e-06
7.79301e-06
8.13731e-06
8.27291e-06
8.62418e-06
8.6624e-06
8.639e-06
8.55507e-06
8.45165e-06
8.90941e-06
9.92369e-06
1.09407e-05
1.12414e-05
1.11526e-05
1.0986e-05
1.12354e-05
1.10684e-05
1.12063e-05
1.17958e-05
1.21103e-05
1.26877e-05
1.31e-05
1.39912e-05
1.47639e-05
1.50092e-05
1.61762e-05
1.71117e-05
1.79814e-05
1.85683e-05
1.93249e-05
2.01554e-05
2.06308e-05
2.08209e-05
2.12462e-05
2.18999e-05
2.19979e-05
2.22071e-05
2.24742e-05
2.23351e-05
2.23879e-05
2.2355e-05
2.22526e-05
2.21175e-05
2.19571e-05
2.16939e-05
2.1497e-05
2.12881e-05
2.10178e-05
2.08017e-05
2.04894e-05
2.02047e-05
1.99068e-05
1.96308e-05
1.93439e-05
1.90482e-05
1.87822e-05
1.85406e-05
1.82105e-05
1.80144e-05
1.76749e-05
1.74213e-05
1.7117e-05
1.68201e-05
1.64906e-05
1.61391e-05
1.57682e-05
1.53873e-05
1.49763e-05
1.45512e-05
1.40994e-05
1.36413e-05
1.31614e-05
1.27115e-05
1.22389e-05
1.17907e-05
1.12823e-05
1.07805e-05
1.02326e-05
9.67467e-06
9.06676e-06
8.4325e-06
7.73152e-06
6.9895e-06
6.21609e-06
5.44663e-06
4.69074e-06
4.01207e-06
3.40792e-06
2.88429e-06
2.30391e-06
1.59174e-06
8.58193e-07
4.86703e-07
4.39595e-07
2.89812e-07
6.84618e-08
1.9558e-08
3.36311e-08
4.72528e-08
2.09659e-08
1.73741e-08
3.67775e-08
8.83106e-08
9.28184e-08
8.30086e-08
5.61828e-08
4.09628e-08
4.82448e-08
6.68604e-08
5.38504e-08
4.83858e-08
3.91979e-08
4.96816e-08
1.13854e-07
4.9904e-08
4.34834e-09
3.63879e-08
6.78482e-08
2.22608e-08
9.8883e-09
2.10026e-08
1.48806e-07
1.58735e-08
1.09614e-08
2.03555e-07
1.98417e-08
2.00537e-08
2.49604e-07
1.04111e-06
3.97391e-07
3.37946e-07
1.23936e-06
2.15006e-06
2.7858e-06
3.41328e-06
3.95948e-06
4.75674e-06
5.80757e-06
7.08324e-06
8.36624e-06
9.66456e-06
1.07546e-05
1.18792e-05
1.28791e-05
1.39231e-05
1.47816e-05
1.56582e-05
1.63396e-05
1.71353e-05
1.7753e-05
1.8497e-05
1.90159e-05
1.96535e-05
2.01098e-05
2.07043e-05
2.11214e-05
2.16375e-05
2.20859e-05
2.25366e-05
2.30855e-05
2.34638e-05
2.4092e-05
2.43413e-05
2.49064e-05
2.50303e-05
2.55751e-05
2.56712e-05
2.61868e-05
2.65841e-05
2.68055e-05
2.74797e-05
2.75477e-05
2.7968e-05
2.82085e-05
2.86843e-05
2.79453e-05
2.92279e-05
2.98534e-05
2.64658e-05
2.99671e-05
3.26951e-05
3.30783e-05
3.27183e-05
3.2081e-05
3.12028e-05
3.03256e-05
2.93022e-05
2.85532e-05
2.78912e-05
2.70223e-05
2.71005e-05
2.7291e-05
2.66223e-05
2.61362e-05
2.59784e-05
2.56003e-05
2.54259e-05
2.5197e-05
2.48702e-05
2.43761e-05
2.32985e-05
2.1674e-05
2.01112e-05
1.7973e-05
1.52357e-05
1.36065e-05
1.15078e-05
9.11473e-06
7.32383e-06
6.5285e-06
5.9319e-06
5.55299e-06
5.16767e-06
4.8942e-06
4.29873e-06
3.83105e-06
3.2323e-06
2.87255e-06
2.96442e-06
3.04723e-06
2.61402e-06
2.49403e-06
2.59385e-06
2.55564e-06
2.30121e-06
2.41023e-06
2.39633e-06
1.95235e-06
1.38893e-06
8.54856e-07
8.66306e-07
6.29721e-07
6.54926e-07
1.02279e-06
1.74587e-06
2.31868e-06
2.62051e-06
3.14575e-06
3.60358e-06
4.28379e-06
3.92057e-06
3.05188e-06
2.73454e-06
1.76716e-06
1.21573e-06
1.04964e-06
1.03495e-06
1.18601e-06
4.81073e-07
3.54043e-07
5.2021e-07
4.20251e-07
5.29203e-07
8.43256e-07
6.49417e-07
7.73287e-07
5.66003e-07
6.30874e-07
8.49734e-07
1.01129e-06
1.03682e-06
1.36496e-06
1.5418e-06
1.61401e-06
1.60298e-06
1.61936e-06
1.39243e-07
2.60705e-06
1.39285e-06
6.53927e-06
2.35794e-06
1.56526e-05
1.435e-05
1.33966e-05
8.03054e-06
2.63033e-06
4.71977e-07
1.22377e-07
8.0076e-08
4.33311e-08
3.52307e-08
3.12827e-08
2.95021e-08
3.00476e-08
2.96815e-08
3.00142e-08
3.00591e-08
2.99759e-08
2.99807e-08
2.9942e-08
2.97464e-08
2.91063e-08
2.95943e-08
2.82846e-08
2.84895e-08
2.77209e-08
2.77144e-08
2.83004e-08
2.79855e-08
2.79231e-08
2.82502e-08
2.76713e-08
2.7693e-08
2.85221e-08
2.81987e-08
2.92471e-08
2.90517e-08
2.91999e-08
2.96008e-08
2.97476e-08
2.97076e-08
2.98641e-08
2.98298e-08
3.00334e-08
2.9994e-08
2.97802e-08
2.96834e-08
3.01116e-08
2.99048e-08
2.91695e-08
8.29844e-08
3.24897e-07
2.02371e-07
1.98359e-07
8.82817e-07
1.91745e-06
2.49154e-06
2.16019e-06
2.11555e-06
2.34025e-06
2.3664e-06
2.47894e-06
2.49418e-06
2.55868e-06
2.63176e-06
2.6706e-06
2.79776e-06
2.97161e-06
3.05088e-06
3.21758e-06
3.25797e-06
3.17927e-06
3.3135e-06
3.39355e-06
3.41865e-06
3.37135e-06
3.57446e-06
3.56925e-06
4.1134e-06
3.93646e-06
3.94536e-06
4.26301e-06
4.18901e-06
4.46042e-06
4.84603e-06
5.23417e-06
5.03885e-06
4.74351e-06
4.90947e-06
5.28646e-06
5.23384e-06
4.82684e-06
4.88247e-06
5.26791e-06
5.02953e-06
5.17417e-06
5.96142e-06
6.21001e-06
6.6457e-06
7.03884e-06
7.50136e-06
7.61556e-06
7.85929e-06
7.7696e-06
7.61501e-06
7.42242e-06
7.5969e-06
8.62118e-06
1.02102e-05
1.11005e-05
1.10963e-05
1.07705e-05
1.05799e-05
1.07722e-05
1.04449e-05
1.07654e-05
1.15533e-05
1.19014e-05
1.25494e-05
1.30885e-05
1.42517e-05
1.50007e-05
1.53069e-05
1.68934e-05
1.79703e-05
1.89633e-05
1.96377e-05
2.05912e-05
2.15495e-05
2.19598e-05
2.21064e-05
2.26667e-05
2.33244e-05
2.31915e-05
2.33629e-05
2.35898e-05
2.32318e-05
2.31536e-05
2.29231e-05
2.26113e-05
2.22624e-05
2.18842e-05
2.13604e-05
2.09693e-05
2.05456e-05
2.00817e-05
1.96858e-05
1.91817e-05
1.87248e-05
1.82954e-05
1.78779e-05
1.74953e-05
1.70562e-05
1.67365e-05
1.63832e-05
1.59776e-05
1.56931e-05
1.52702e-05
1.49264e-05
1.4503e-05
1.41251e-05
1.36376e-05
1.31779e-05
1.2619e-05
1.20888e-05
1.14672e-05
1.08512e-05
1.01529e-05
9.44062e-06
8.65812e-06
7.89931e-06
7.09553e-06
6.33048e-06
5.51084e-06
4.74397e-06
3.99799e-06
3.32304e-06
2.69576e-06
2.11679e-06
1.56775e-06
1.06428e-06
6.6235e-07
3.75312e-07
1.93704e-07
1.02674e-07
5.64638e-08
4.57126e-08
3.45248e-08
3.1164e-08
2.22155e-08
2.96716e-08
3.12222e-08
4.58223e-08
4.38786e-08
4.7397e-08
3.24574e-08
3.87784e-08
3.41683e-08
3.07952e-08
1.83965e-08
2.29762e-08
2.63106e-08
3.42053e-08
3.18943e-08
4.21659e-08
4.0783e-08
3.32282e-08
5.3402e-08
5.53287e-08
4.82193e-08
8.04415e-08
1.58237e-08
6.92871e-08
8.76519e-08
7.04458e-08
2.27622e-08
5.41577e-08
1.90486e-08
2.57517e-08
1.03389e-08
1.15857e-08
5.04049e-09
2.616e-08
1.46426e-08
5.04761e-09
1.42127e-08
4.63762e-08
4.72126e-09
1.49994e-08
1.42847e-08
1.42206e-08
2.09643e-08
4.46987e-08
2.55752e-08
8.5778e-08
1.2532e-07
2.97949e-07
6.78486e-07
1.28452e-06
1.73565e-06
2.40962e-06
3.09437e-06
3.98938e-06
4.86601e-06
5.88547e-06
6.76588e-06
7.96385e-06
9.08256e-06
1.04561e-05
1.15915e-05
1.28347e-05
1.38259e-05
1.49036e-05
1.57364e-05
1.65947e-05
1.74242e-05
1.81433e-05
1.91092e-05
1.97187e-05
2.08111e-05
2.12487e-05
2.22562e-05
2.2472e-05
2.34384e-05
2.35625e-05
2.44546e-05
2.49661e-05
2.5506e-05
2.63075e-05
2.67573e-05
2.70188e-05
2.79488e-05
2.79002e-05
2.80714e-05
2.85434e-05
3.02006e-05
2.72331e-05
3.09757e-05
3.40556e-05
3.45832e-05
3.46155e-05
3.4205e-05
3.34465e-05
3.25896e-05
3.14396e-05
3.05712e-05
2.99108e-05
2.88113e-05
2.89533e-05
2.9546e-05
2.8929e-05
2.83378e-05
2.82944e-05
2.79802e-05
2.79254e-05
2.78745e-05
2.76953e-05
2.7442e-05
2.65838e-05
2.46906e-05
2.29089e-05
2.06708e-05
1.74819e-05
1.54828e-05
1.34255e-05
1.05079e-05
7.94564e-06
6.85078e-06
6.32745e-06
5.95407e-06
5.54593e-06
5.31174e-06
4.63795e-06
3.8851e-06
3.17272e-06
2.65705e-06
2.90222e-06
3.08799e-06
2.47157e-06
2.21448e-06
2.53572e-06
2.60331e-06
2.20921e-06
2.34539e-06
2.35219e-06
1.57091e-06
5.86448e-07
1.98602e-07
2.35134e-07
2.40435e-07
3.03164e-07
5.69725e-07
1.10692e-06
1.94289e-06
2.48697e-06
3.25456e-06
4.17892e-06
5.29743e-06
4.74532e-06
3.69133e-06
3.04343e-06
1.03657e-06
8.17777e-07
1.02589e-06
5.7907e-07
7.25939e-07
2.01867e-07
2.53035e-07
8.12149e-07
6.31202e-07
6.2281e-07
5.61754e-07
4.92653e-07
7.15131e-07
5.57623e-07
8.01048e-07
7.22903e-07
1.04155e-06
7.8314e-07
8.73014e-07
6.25199e-07
6.36899e-07
1.17662e-06
1.45701e-07
1.03089e-06
1.54024e-07
1.70644e-06
2.29148e-07
2.84661e-07
9.51519e-06
1.66155e-05
1.56209e-05
9.00707e-06
3.89248e-06
1.47795e-06
2.9755e-07
9.11761e-08
4.76822e-08
3.00461e-08
2.8607e-08
3.00667e-08
3.04117e-08
2.99253e-08
2.9972e-08
3.01432e-08
3.015e-08
2.98961e-08
3.03716e-08
2.94395e-08
2.90586e-08
2.97889e-08
2.83898e-08
2.85297e-08
2.77916e-08
2.7824e-08
2.83282e-08
2.80703e-08
2.80774e-08
2.83582e-08
2.77536e-08
2.78878e-08
2.8556e-08
2.83482e-08
2.95891e-08
2.90224e-08
2.92119e-08
2.98826e-08
2.93771e-08
2.97791e-08
3.00288e-08
3.03135e-08
2.98797e-08
2.98542e-08
2.9475e-08
3.0214e-08
3.19997e-08
3.51176e-08
6.63471e-08
1.14521e-07
3.86354e-08
3.22469e-08
4.63434e-07
1.43036e-06
2.07836e-06
2.67638e-06
2.81715e-06
2.72639e-06
2.76286e-06
2.72167e-06
2.74914e-06
2.65135e-06
2.75513e-06
2.60851e-06
2.7326e-06
2.65041e-06
2.77508e-06
2.73659e-06
2.90775e-06
2.87613e-06
2.94383e-06
2.73093e-06
2.78588e-06
2.79888e-06
2.6947e-06
2.80295e-06
2.83052e-06
2.72125e-06
3.11531e-06
2.91451e-06
3.15224e-06
2.99912e-06
3.23861e-06
3.58534e-06
3.12437e-06
3.4955e-06
2.94211e-06
3.68581e-06
3.44962e-06
3.6677e-06
3.21519e-06
3.56777e-06
3.78742e-06
4.22812e-06
3.98944e-06
4.77318e-06
4.9549e-06
5.44657e-06
5.81874e-06
5.77713e-06
6.28677e-06
5.94197e-06
5.97762e-06
5.7949e-06
5.93738e-06
6.81992e-06
8.18869e-06
9.65936e-06
9.9138e-06
9.68154e-06
9.24477e-06
9.01781e-06
9.05312e-06
8.79582e-06
9.52709e-06
1.03757e-05
1.0654e-05
1.13162e-05
1.20473e-05
1.32908e-05
1.38229e-05
1.43059e-05
1.61692e-05
1.71932e-05
1.81873e-05
1.89083e-05
1.99865e-05
2.09237e-05
2.11703e-05
2.13e-05
2.19751e-05
2.24667e-05
2.20587e-05
2.2194e-05
2.23238e-05
2.17402e-05
2.15257e-05
2.10767e-05
2.0556e-05
2.00015e-05
1.94151e-05
1.8654e-05
1.81102e-05
1.7501e-05
1.69003e-05
1.63628e-05
1.57186e-05
1.51342e-05
1.46281e-05
1.40979e-05
1.36625e-05
1.30893e-05
1.27568e-05
1.22998e-05
1.18522e-05
1.14756e-05
1.10128e-05
1.05516e-05
1.00436e-05
9.56745e-06
8.9197e-06
8.32953e-06
7.53459e-06
6.82366e-06
5.91428e-06
5.11287e-06
4.17505e-06
3.39057e-06
2.58269e-06
2.01359e-06
1.39534e-06
1.05289e-06
5.46945e-07
3.91385e-07
1.65045e-07
1.37161e-07
7.41162e-08
6.12754e-08
5.09663e-08
3.84423e-08
4.16053e-08
3.58153e-08
4.13963e-08
4.51927e-08
4.76694e-08
5.22961e-08
4.19728e-08
4.48174e-08
3.57735e-08
4.25949e-08
3.38408e-08
3.58925e-08
2.94165e-08
3.3368e-08
3.28875e-08
3.77547e-08
4.36089e-08
5.70658e-08
6.58848e-08
5.6903e-08
4.73392e-08
4.08201e-08
4.87138e-08
4.29906e-08
5.01763e-08
4.57666e-08
3.9494e-08
3.90648e-08
4.11148e-08
4.46395e-08
6.09368e-08
3.11431e-08
3.00186e-08
2.46622e-08
1.60917e-08
3.23674e-08
2.4332e-08
4.71107e-08
2.32893e-08
3.60704e-08
1.92591e-08
3.47335e-08
1.57938e-08
2.17915e-08
1.16405e-08
3.02672e-08
1.20495e-08
3.3031e-08
1.50203e-08
3.05541e-08
1.46665e-08
3.506e-08
1.01883e-08
4.44723e-08
1.24232e-08
3.56972e-08
1.83096e-08
5.13218e-08
1.68634e-08
7.7142e-08
3.40295e-08
1.30907e-07
1.20052e-07
3.76341e-07
3.80879e-07
9.29556e-07
1.3301e-06
2.27302e-06
2.93104e-06
3.96866e-06
4.89546e-06
6.12173e-06
7.18332e-06
8.30562e-06
9.51982e-06
1.05864e-05
1.20809e-05
1.30445e-05
1.46605e-05
1.53524e-05
1.67801e-05
1.71423e-05
1.84941e-05
1.8712e-05
1.99257e-05
2.06035e-05
2.14407e-05
2.24081e-05
2.31585e-05
2.34253e-05
2.47674e-05
2.45021e-05
2.53004e-05
2.52969e-05
2.746e-05
2.56562e-05
2.91588e-05
3.21871e-05
3.25127e-05
3.28684e-05
3.27667e-05
3.22789e-05
3.16161e-05
3.04977e-05
2.95832e-05
2.90673e-05
2.78255e-05
2.79285e-05
2.90041e-05
2.86615e-05
2.79923e-05
2.80698e-05
2.7882e-05
2.79756e-05
2.81833e-05
2.82403e-05
2.83233e-05
2.79957e-05
2.61901e-05
2.43243e-05
2.22076e-05
1.89322e-05
1.65309e-05
1.458e-05
1.15666e-05
8.22873e-06
6.38332e-06
5.84232e-06
5.71478e-06
5.29718e-06
5.05017e-06
4.29292e-06
3.15266e-06
2.26234e-06
1.61834e-06
1.95818e-06
2.358e-06
1.59713e-06
1.08976e-06
1.50338e-06
1.73237e-06
1.27377e-06
1.5438e-06
1.58438e-06
6.6937e-07
2.94929e-07
2.50904e-07
2.95676e-07
3.73771e-07
4.42778e-07
5.75542e-07
7.13448e-07
9.96487e-07
1.48585e-06
2.5551e-06
4.25919e-06
6.06188e-06
5.43362e-06
4.01593e-06
2.72757e-06
5.86399e-08
6.44029e-07
3.87803e-07
3.15736e-07
6.32462e-07
5.30446e-07
6.4353e-07
8.75901e-07
7.66612e-07
9.16573e-07
9.56282e-07
8.90999e-07
9.16509e-07
6.04946e-07
9.40407e-07
5.45639e-07
6.35056e-07
5.47529e-07
3.75397e-07
4.12789e-07
1.25793e-06
5.81839e-07
1.99503e-07
2.49179e-07
1.54267e-08
1.0276e-06
3.11564e-08
2.19228e-07
2.70186e-06
1.39368e-05
1.45819e-05
9.02691e-06
3.95215e-06
1.29364e-06
2.35814e-07
4.69106e-08
2.79171e-08
2.78169e-08
3.18806e-08
3.10096e-08
3.0625e-08
3.00884e-08
3.00162e-08
3.02618e-08
3.02529e-08
3.01811e-08
2.99323e-08
2.96824e-08
2.92441e-08
2.96067e-08
2.83337e-08
2.85066e-08
2.76871e-08
2.76325e-08
2.82651e-08
2.79931e-08
2.80006e-08
2.82331e-08
2.76918e-08
2.77256e-08
2.84301e-08
2.82209e-08
2.92173e-08
2.92255e-08
2.95319e-08
2.96601e-08
2.94897e-08
2.96222e-08
2.97878e-08
3.01506e-08
3.00531e-08
2.98107e-08
3.01989e-08
3.15321e-08
3.1804e-08
3.16537e-08
2.20317e-08
3.57329e-09
2.41848e-09
5.04148e-08
1.89775e-08
3.07143e-08
8.20094e-07
1.55852e-06
2.10068e-06
2.25891e-06
2.44268e-06
2.5161e-06
2.6003e-06
2.67283e-06
2.67857e-06
2.75519e-06
2.70822e-06
2.79788e-06
2.76803e-06
2.81485e-06
2.81724e-06
2.81341e-06
2.84351e-06
2.75018e-06
2.73011e-06
2.70767e-06
2.83669e-06
2.77065e-06
2.9428e-06
2.89826e-06
2.90498e-06
3.04189e-06
2.88842e-06
2.95605e-06
2.75896e-06
3.11448e-06
3.00798e-06
2.94512e-06
3.06777e-06
3.23361e-06
3.32843e-06
2.82304e-06
3.48098e-06
3.18207e-06
3.5251e-06
3.57144e-06
3.77544e-06
3.69636e-06
4.15204e-06
4.29014e-06
4.49026e-06
4.15403e-06
4.86502e-06
4.48897e-06
4.61193e-06
5.12206e-06
5.38111e-06
6.37234e-06
7.14001e-06
7.9465e-06
7.73144e-06
7.49872e-06
7.03019e-06
6.82755e-06
6.99725e-06
7.25613e-06
8.1552e-06
8.62731e-06
8.82739e-06
9.59778e-06
1.04014e-05
1.13293e-05
1.16295e-05
1.24047e-05
1.41777e-05
1.49842e-05
1.58868e-05
1.66258e-05
1.77195e-05
1.84764e-05
1.8514e-05
1.86742e-05
1.93953e-05
1.95604e-05
1.88922e-05
1.89849e-05
1.89594e-05
1.81628e-05
1.78142e-05
1.7136e-05
1.64217e-05
1.56789e-05
1.48936e-05
1.39149e-05
1.32431e-05
1.24535e-05
1.17337e-05
1.10498e-05
1.02549e-05
9.52916e-06
8.95622e-06
8.31258e-06
7.83013e-06
7.10117e-06
6.81828e-06
6.24909e-06
5.80023e-06
5.36242e-06
4.95106e-06
4.39954e-06
3.98455e-06
3.48969e-06
2.94405e-06
2.45265e-06
1.84702e-06
1.40638e-06
8.06113e-07
5.32569e-07
2.0424e-07
1.31775e-07
5.47999e-08
5.98112e-08
2.77151e-08
4.61768e-08
2.11259e-08
3.67776e-08
2.2691e-08
3.08698e-08
2.60976e-08
2.71988e-08
2.90356e-08
2.7313e-08
3.19384e-08
2.84146e-08
2.97272e-08
2.46139e-08
2.4269e-08
2.221e-08
2.61762e-08
2.8546e-08
3.44864e-08
3.41868e-08
3.71875e-08
3.59836e-08
4.05732e-08
3.96363e-08
4.307e-08
3.78468e-08
3.46582e-08
2.56293e-08
2.50316e-08
2.57442e-08
3.58399e-08
3.79528e-08
4.1599e-08
3.97298e-08
4.43576e-08
4.7673e-08
4.73288e-08
5.58201e-08
5.24201e-08
6.94478e-08
3.72966e-08
7.23451e-08
5.45974e-08
5.82728e-08
5.04764e-08
3.32176e-08
2.17303e-08
2.40351e-08
1.8354e-08
1.9822e-08
1.46289e-08
1.76755e-08
1.40554e-08
1.6198e-08
1.14048e-08
1.3754e-08
9.42166e-09
1.27263e-08
9.11318e-09
1.39471e-08
9.01016e-09
1.5647e-08
7.00357e-09
1.53061e-08
6.58468e-09
1.53171e-08
6.5751e-09
1.70998e-08
6.58907e-09
2.21913e-08
6.75368e-09
2.81973e-08
8.55941e-09
4.15148e-08
1.01985e-08
4.63005e-08
1.19063e-08
6.65453e-08
2.83079e-08
1.47078e-07
1.33261e-07
4.71569e-07
7.97423e-07
1.21636e-06
2.00897e-06
2.38603e-06
3.65727e-06
4.28293e-06
6.04588e-06
6.83876e-06
8.59183e-06
9.13493e-06
1.08197e-05
1.12859e-05
1.28037e-05
1.38326e-05
1.49414e-05
1.62345e-05
1.71414e-05
1.76922e-05
1.90606e-05
1.90061e-05
2.00755e-05
1.97786e-05
2.21061e-05
2.21321e-05
2.52281e-05
2.77946e-05
2.76047e-05
2.81194e-05
2.83174e-05
2.81599e-05
2.78088e-05
2.6854e-05
2.59256e-05
2.56801e-05
2.44056e-05
2.43446e-05
2.59148e-05
2.60961e-05
2.54193e-05
2.56043e-05
2.55934e-05
2.58577e-05
2.63844e-05
2.67675e-05
2.72343e-05
2.76242e-05
2.63139e-05
2.4586e-05
2.26874e-05
1.96152e-05
1.69069e-05
1.49491e-05
1.21337e-05
8.52421e-06
5.79536e-06
4.75732e-06
4.6973e-06
4.37661e-06
4.26882e-06
3.59628e-06
2.43137e-06
1.55716e-06
9.39189e-07
1.00804e-06
1.4189e-06
9.00353e-07
4.63207e-07
6.09325e-07
7.85696e-07
5.5615e-07
6.51078e-07
7.11375e-07
2.56322e-07
1.97925e-07
1.83597e-07
1.97246e-07
2.33998e-07
2.75456e-07
3.5518e-07
4.43935e-07
5.24062e-07
6.7873e-07
1.67938e-06
4.00044e-06
6.48971e-06
5.97495e-06
4.40599e-06
2.33615e-06
2.67824e-09
9.56506e-07
5.33451e-07
7.92086e-07
1.05245e-06
6.07065e-07
6.73237e-07
7.63288e-07
8.14117e-07
6.69172e-07
7.05989e-07
5.0226e-07
7.98061e-07
4.99335e-07
7.13401e-07
7.56734e-07
7.05336e-07
3.62558e-07
2.79369e-07
5.72318e-07
5.41623e-07
2.96684e-07
1.0761e-06
1.34686e-06
8.32565e-07
1.39303e-06
5.97022e-09
2.86357e-06
3.65852e-06
9.60048e-06
1.16856e-05
9.82826e-06
3.85762e-06
7.88505e-07
1.86826e-07
6.74249e-08
3.46631e-08
3.41297e-08
3.11804e-08
2.96422e-08
2.96768e-08
2.98349e-08
3.02016e-08
3.04707e-08
3.02395e-08
3.00036e-08
3.00489e-08
2.94215e-08
2.92091e-08
2.97075e-08
2.82765e-08
2.85322e-08
2.77837e-08
2.78379e-08
2.83243e-08
2.80372e-08
2.80525e-08
2.83411e-08
2.77205e-08
2.7876e-08
2.86383e-08
2.82632e-08
2.9197e-08
2.90353e-08
2.91137e-08
2.96653e-08
2.96039e-08
3.01388e-08
2.95934e-08
2.99912e-08
3.00097e-08
2.98572e-08
3.01104e-08
3.03084e-08
3.06773e-08
3.03701e-08
2.87967e-08
3.95111e-08
8.99875e-08
8.2414e-08
2.40263e-07
4.67003e-07
6.90267e-07
1.25945e-06
1.5048e-06
1.86205e-06
1.96558e-06
2.14518e-06
2.2141e-06
2.33884e-06
2.37504e-06
2.44977e-06
2.46202e-06
2.52018e-06
2.51684e-06
2.62232e-06
2.58085e-06
2.70488e-06
2.6635e-06
2.77423e-06
2.72666e-06
2.82103e-06
2.78006e-06
2.98565e-06
2.83318e-06
3.08501e-06
2.93237e-06
3.06271e-06
2.96364e-06
3.04477e-06
3.0059e-06
3.07566e-06
3.30529e-06
3.13656e-06
3.16514e-06
3.26925e-06
3.27754e-06
3.29558e-06
3.05212e-06
3.77238e-06
3.15561e-06
3.62679e-06
3.6203e-06
3.6116e-06
3.73285e-06
4.00298e-06
4.00567e-06
3.91172e-06
4.26851e-06
4.58274e-06
4.17304e-06
5.14057e-06
4.97561e-06
5.46567e-06
5.80075e-06
5.92671e-06
5.75221e-06
5.68805e-06
5.50458e-06
5.57445e-06
6.00469e-06
6.34798e-06
6.76184e-06
6.96608e-06
7.20185e-06
7.87407e-06
8.28559e-06
8.70461e-06
8.89924e-06
9.7397e-06
1.09489e-05
1.14584e-05
1.21999e-05
1.29069e-05
1.38455e-05
1.42717e-05
1.41188e-05
1.43505e-05
1.49873e-05
1.46929e-05
1.38027e-05
1.37918e-05
1.35172e-05
1.24695e-05
1.19252e-05
1.09268e-05
9.95481e-06
8.98278e-06
7.94261e-06
6.80362e-06
6.18938e-06
5.29207e-06
4.70587e-06
4.11239e-06
3.41357e-06
2.87919e-06
2.5401e-06
2.05705e-06
1.86243e-06
1.25544e-06
1.32483e-06
8.69038e-07
7.7231e-07
5.26854e-07
4.84482e-07
2.41259e-07
2.50024e-07
1.24016e-07
1.13529e-07
6.15867e-08
5.64341e-08
3.88961e-08
3.90962e-08
3.35473e-08
3.59588e-08
3.18836e-08
3.48298e-08
3.15439e-08
3.38207e-08
3.18912e-08
3.41557e-08
3.24985e-08
3.48764e-08
3.28891e-08
3.56652e-08
3.40335e-08
3.71379e-08
3.44891e-08
3.64871e-08
3.46437e-08
3.96446e-08
4.12038e-08
4.78301e-08
4.67948e-08
4.61094e-08
3.79072e-08
3.47676e-08
3.16801e-08
3.45713e-08
3.41561e-08
3.53391e-08
3.17176e-08
3.18692e-08
3.23991e-08
3.97816e-08
4.69782e-08
5.3826e-08
5.1313e-08
4.57623e-08
4.08532e-08
3.97898e-08
4.18183e-08
4.00399e-08
4.31774e-08
4.16883e-08
3.76289e-08
3.25155e-08
3.84925e-08
3.59364e-08
3.60636e-08
2.82168e-08
2.59048e-08
3.09157e-08
3.43002e-08
2.99977e-08
2.90118e-08
2.61441e-08
2.55406e-08
2.25714e-08
2.11312e-08
1.94315e-08
2.0922e-08
2.04867e-08
2.10255e-08
1.98725e-08
1.91651e-08
1.73399e-08
1.76328e-08
1.67732e-08
1.9328e-08
1.90422e-08
2.16737e-08
1.92455e-08
2.29076e-08
1.95836e-08
2.12988e-08
1.74229e-08
2.01052e-08
1.47783e-08
1.68419e-08
1.14205e-08
1.42419e-08
1.03748e-08
1.68807e-08
1.43036e-08
2.13568e-08
1.7353e-08
2.18013e-08
2.4731e-08
1.65225e-08
5.59536e-08
4.86703e-09
1.50811e-07
1.38267e-09
3.54584e-07
1.69697e-08
8.03436e-07
5.44214e-07
1.69462e-06
1.78944e-06
2.84162e-06
3.12815e-06
4.07673e-06
5.24643e-06
6.19983e-06
7.88334e-06