/*--------------------------------*- C++ -*----------------------------------*\
| =========                 |                                                 |
| \\      /  F ield         | OpenFOAM: The Open Source CFD Toolbox           |
|  \\    /   O peration     | Version:  v2006                                 |
|   \\  /    A nd           | Website:  www.openfoam.com                      |
|    \\/     M anipulation  |                                                 |
\*---------------------------------------------------------------------------*/
FoamFile
{
    version     2.0;
    format      ascii;
    class       volScalarField;
    location    "50";
    object      nuTilda;
}
// * * * * * * * * * * * * * * * * * * * * * * * * * * * * * * * * * * * * * //

dimensions      [0 2 -1 0 0 0 0];


internalField   nonuniform List<scalar> 
93840
(
3.9808e-07
3.97813e-07
3.9804e-07
3.98017e-07
3.98176e-07
3.99553e-07
4.01783e-07
4.00831e-07
4.04358e-07
4.02648e-07
4.03981e-07
4.0363e-07
4.03319e-07
4.01874e-07
4.00785e-07
4.00105e-07
3.98202e-07
3.99489e-07
4.05102e-07
3.93231e-07
4.10777e-07
6.34146e-07
1.14713e-06
1.55477e-06
1.90214e-06
1.21574e-06
1.63119e-06
5.339e-06
1.01177e-05
1.0768e-05
1.2137e-05
1.14545e-05
1.22756e-05
1.09594e-05
1.16683e-05
1.0857e-05
1.09244e-05
1.07623e-05
1.04471e-05
1.05027e-05
1.01046e-05
1.02426e-05
9.77669e-06
9.9134e-06
9.46877e-06
9.61559e-06
9.20983e-06
9.25526e-06
8.94179e-06
9.01508e-06
8.70162e-06
8.69255e-06
8.4704e-06
8.43812e-06
8.30329e-06
8.20575e-06
8.12129e-06
8.0148e-06
7.85691e-06
7.84342e-06
7.67045e-06
7.65949e-06
7.53253e-06
7.52599e-06
7.44063e-06
7.41287e-06
7.39216e-06
7.35487e-06
7.37241e-06
7.35495e-06
7.3755e-06
7.43019e-06
7.44322e-06
7.50492e-06
7.55949e-06
7.60768e-06
7.65702e-06
7.73487e-06
7.79798e-06
7.92829e-06
8.07232e-06
8.19086e-06
8.30609e-06
8.42267e-06
8.56549e-06
8.6843e-06
8.84529e-06
9.00715e-06
9.18163e-06
9.37774e-06
9.59694e-06
9.84852e-06
1.00995e-05
1.03319e-05
1.06099e-05
1.08966e-05
1.11831e-05
1.14395e-05
1.17238e-05
1.20187e-05
1.231e-05
1.25624e-05
1.28494e-05
1.33233e-05
1.37433e-05
1.38899e-05
1.40448e-05
1.43763e-05
1.47421e-05
1.50997e-05
1.54531e-05
1.58057e-05
1.61577e-05
1.65704e-05
1.69492e-05
1.73276e-05
1.76788e-05
1.80832e-05
1.84203e-05
1.87706e-05
1.9058e-05
1.93708e-05
1.95284e-05
1.97326e-05
1.97353e-05
1.97785e-05
1.9823e-05
1.96225e-05
1.97227e-05
1.96104e-05
1.94883e-05
1.94035e-05
1.92679e-05
1.92218e-05
1.9119e-05
1.90089e-05
1.88883e-05
1.88366e-05
1.87348e-05
1.86965e-05
1.86456e-05
1.85545e-05
1.84878e-05
1.83892e-05
1.83686e-05
1.82931e-05
1.82655e-05
1.81911e-05
1.81234e-05
1.80339e-05
1.79655e-05
1.78726e-05
1.77747e-05
1.76602e-05
1.75379e-05
1.74031e-05
1.72547e-05
1.70885e-05
1.68932e-05
1.6699e-05
1.65185e-05
1.63328e-05
1.61037e-05
1.58586e-05
1.55263e-05
1.51021e-05
1.4555e-05
1.3917e-05
1.32991e-05
1.28249e-05
1.15498e-05
7.46009e-06
1.75432e-06
4.36813e-06
8.77874e-06
3.62212e-06
2.33303e-07
7.54051e-07
1.41795e-06
1.16551e-06
1.20744e-07
3.85258e-07
7.8758e-07
8.40475e-07
5.75537e-07
3.78194e-07
2.00913e-07
2.42386e-06
7.6089e-06
3.49754e-06
4.35859e-07
1.33913e-05
2.33524e-05
2.07927e-05
1.97503e-05
2.34539e-05
2.71166e-05
2.88802e-05
2.95587e-05
2.97499e-05
2.95932e-05
2.94987e-05
2.92761e-05
2.91818e-05
2.89715e-05
2.88435e-05
2.85687e-05
2.83959e-05
2.80702e-05
2.79188e-05
2.76947e-05
2.75935e-05
2.738e-05
2.72962e-05
2.70491e-05
2.69347e-05
2.66791e-05
2.65877e-05
2.63671e-05
2.62606e-05
2.62835e-05
2.63167e-05
2.61144e-05
2.60535e-05
2.58268e-05
2.57643e-05
2.55339e-05
2.54738e-05
2.52004e-05
2.5113e-05
2.4944e-05
2.50633e-05
2.5025e-05
2.51034e-05
2.50705e-05
2.506e-05
2.48609e-05
2.48568e-05
2.46242e-05
2.46306e-05
2.43956e-05
2.43915e-05
2.41641e-05
2.41459e-05
2.38236e-05
2.35673e-05
2.29532e-05
2.06005e-05
1.74684e-05
1.68308e-05
1.75725e-05
1.73767e-05
1.74597e-05
1.73143e-05
1.71981e-05
1.69822e-05
1.67909e-05
1.65362e-05
1.61818e-05
1.58248e-05
1.54577e-05
1.50192e-05
1.46069e-05
1.4182e-05
1.37379e-05
1.3288e-05
1.28624e-05
1.23832e-05
1.17188e-05
1.09839e-05
1.05051e-05
9.98498e-06
9.20012e-06
8.22884e-06
7.51059e-06
6.49306e-06
5.02928e-06
3.557e-06
2.4375e-06
1.42994e-06
9.15086e-07
5.8508e-07
5.20517e-07
4.8233e-07
4.71013e-07
4.45797e-07
4.3101e-07
4.26479e-07
4.23949e-07
4.18789e-07
4.19611e-07
4.07939e-07
4.10041e-07
4.10143e-07
4.25038e-07
4.22395e-07
4.03622e-07
3.85188e-07
3.68117e-07
3.74568e-07
3.78881e-07
3.81549e-07
3.90385e-07
4.4442e-07
4.92758e-07
5.22025e-07
5.48383e-07
5.58961e-07
6.21995e-07
5.7308e-07
5.6153e-07
6.09026e-07
6.24877e-07
6.49837e-07
6.84781e-07
7.3781e-07
7.75259e-07
9.00977e-07
1.01024e-06
1.13713e-06
1.18123e-06
1.22815e-06
1.2405e-06
1.21445e-06
1.1475e-06
1.04398e-06
9.43152e-07
9.07809e-07
8.54314e-07
7.72938e-07
6.48874e-07
7.2934e-07
9.92724e-07
8.86876e-07
1.28587e-06
8.18892e-07
4.97238e-06
1.07203e-05
1.11468e-05
1.41182e-05
1.19383e-05
4.25225e-06
2.23085e-06
1.68034e-06
1.56491e-06
9.30409e-07
4.25526e-07
3.90857e-07
4.10295e-07
3.94573e-07
3.97518e-07
4.01749e-07
4.01022e-07
4.01352e-07
4.01707e-07
4.0363e-07
4.03074e-07
4.04381e-07
4.04449e-07
4.04781e-07
4.01462e-07
4.02145e-07
3.9973e-07
3.98152e-07
3.97805e-07
3.97776e-07
3.97881e-07
3.97735e-07
3.9758e-07
3.9773e-07
3.97721e-07
3.9777e-07
3.97967e-07
3.99492e-07
4.0209e-07
4.00946e-07
4.03787e-07
4.01785e-07
4.03352e-07
4.02779e-07
4.02799e-07
4.01398e-07
4.02172e-07
4.00304e-07
3.99971e-07
4.06012e-07
4.13121e-07
4.27811e-07
4.80997e-07
4.93233e-07
3.04514e-07
7.35819e-07
2.23889e-06
2.70361e-06
1.5066e-06
1.23939e-06
3.7877e-06
5.05597e-06
6.74148e-06
7.08565e-06
7.34926e-06
7.20308e-06
7.55542e-06
7.20533e-06
7.28717e-06
7.38158e-06
7.39722e-06
7.42517e-06
7.32905e-06
7.45503e-06
7.27364e-06
7.38588e-06
7.34402e-06
7.46166e-06
7.34087e-06
6.94296e-06
7.41401e-06
7.34101e-06
7.12693e-06
7.17636e-06
7.3219e-06
7.14903e-06
7.15341e-06
7.09777e-06
7.25193e-06
7.16557e-06
7.2994e-06
7.1808e-06
7.2517e-06
7.12445e-06
7.31249e-06
7.03192e-06
7.2436e-06
7.13349e-06
7.20865e-06
7.00421e-06
7.45142e-06
7.30398e-06
7.60172e-06
7.80124e-06
7.91906e-06
8.14e-06
8.26911e-06
8.32246e-06
8.38896e-06
8.34338e-06
8.47389e-06
8.8448e-06
9.43216e-06
9.76092e-06
9.90263e-06
9.87715e-06
1.0076e-05
1.00997e-05
1.02107e-05
1.05526e-05
1.07777e-05
1.11628e-05
1.14539e-05
1.19471e-05
1.24859e-05
1.27071e-05
1.33279e-05
1.39008e-05
1.44563e-05
1.48626e-05
1.53253e-05
1.58504e-05
1.62452e-05
1.64793e-05
1.67783e-05
1.72552e-05
1.74812e-05
1.76959e-05
1.79653e-05
1.80728e-05
1.82591e-05
1.84203e-05
1.8546e-05
1.86575e-05
1.87577e-05
1.88183e-05
1.88838e-05
1.89532e-05
1.89742e-05
1.9021e-05
1.89947e-05
1.89803e-05
1.89156e-05
1.88652e-05
1.87467e-05
1.86513e-05
1.84909e-05
1.83993e-05
1.82073e-05
1.80838e-05
1.7929e-05
1.77375e-05
1.75926e-05
1.74079e-05
1.72451e-05
1.70608e-05
1.6867e-05
1.66832e-05
1.64827e-05
1.62989e-05
1.60899e-05
1.5903e-05
1.56789e-05
1.5492e-05
1.52772e-05
1.50967e-05
1.48801e-05
1.46736e-05
1.44466e-05
1.42213e-05
1.39807e-05
1.37399e-05
1.3477e-05
1.31961e-05
1.28961e-05
1.25679e-05
1.22067e-05
1.18143e-05
1.13781e-05
1.08819e-05
1.02786e-05
9.54217e-06
8.70201e-06
7.94727e-06
7.40702e-06
6.82196e-06
5.67345e-06
3.92771e-06
2.3719e-06
1.86839e-06
2.32243e-06
2.71183e-06
2.08128e-06
7.75726e-07
4.5535e-07
2.73654e-09
4.41506e-07
4.16196e-07
3.83548e-07
4.08594e-07
2.57229e-07
3.2947e-07
5.30198e-07
5.39487e-07
1.74458e-07
3.80887e-07
5.81587e-07
4.95138e-07
3.32965e-07
4.2713e-07
4.83999e-07
3.31937e-07
2.22517e-07
1.18403e-06
3.29625e-06
3.0457e-06
1.31933e-06
1.83685e-06
5.44243e-06
8.95993e-06
1.02895e-05
1.10176e-05
1.23667e-05
1.42095e-05
1.5523e-05
1.65563e-05
1.73655e-05
1.829e-05
1.90586e-05
1.98086e-05
2.03168e-05
2.07886e-05
2.10558e-05
2.1374e-05
2.15507e-05
2.18003e-05
2.19132e-05
2.21075e-05
2.21884e-05
2.23675e-05
2.24529e-05
2.26443e-05
2.26733e-05
2.28768e-05
2.29417e-05
2.31432e-05
2.3192e-05
2.3376e-05
2.34308e-05
2.35924e-05
2.36795e-05
2.38067e-05
2.39088e-05
2.39869e-05
2.40904e-05
2.41575e-05
2.42654e-05
2.4366e-05
2.44553e-05
2.46883e-05
2.46106e-05
2.50029e-05
2.47762e-05
2.51696e-05
2.48685e-05
2.54638e-05
2.45313e-05
2.56251e-05
2.55132e-05
2.32838e-05
2.47122e-05
2.60298e-05
2.5896e-05
2.52558e-05
2.46167e-05
2.39167e-05
2.32935e-05
2.26496e-05
2.21673e-05
2.1702e-05
2.11958e-05
2.11127e-05
2.09801e-05
2.04751e-05
2.01156e-05
1.98589e-05
1.94917e-05
1.92217e-05
1.88976e-05
1.85237e-05
1.79762e-05
1.70829e-05
1.60616e-05
1.49713e-05
1.34566e-05
1.16501e-05
1.04444e-05
8.69532e-06
7.1217e-06
6.04147e-06
5.49818e-06
4.98628e-06
4.72034e-06
4.24625e-06
3.81961e-06
3.20493e-06
2.88129e-06
2.52955e-06
2.3094e-06
2.24544e-06
2.19145e-06
2.02216e-06
1.87448e-06
1.83827e-06
1.83369e-06
1.79366e-06
1.85586e-06
1.83697e-06
1.68025e-06
1.54213e-06
1.41743e-06
1.43452e-06
1.41747e-06
1.42632e-06
1.46836e-06
1.67807e-06
1.86675e-06
1.9819e-06
2.18074e-06
2.3233e-06
2.78999e-06
2.71754e-06
2.39833e-06
2.34358e-06
2.292e-06
2.08559e-06
1.81418e-06
1.53006e-06
1.38113e-06
1.04546e-06
8.94558e-07
9.19485e-07
9.20593e-07
9.12582e-07
9.48856e-07
7.09053e-07
7.92068e-07
9.2052e-07
1.06133e-06
9.7269e-07
9.06185e-07
1.22882e-06
1.6058e-06
1.6555e-06
1.93821e-06
2.30391e-06
2.49145e-06
3.70555e-06
6.35671e-06
6.99612e-06
1.32025e-05
1.3638e-05
1.65855e-05
8.79974e-06
8.21521e-06
4.89961e-06
1.60287e-06
2.81037e-07
3.01298e-07
3.83794e-07
3.98691e-07
4.07544e-07
4.06294e-07
4.02871e-07
4.01316e-07
4.02336e-07
4.02555e-07
4.03726e-07
4.0437e-07
4.04211e-07
4.04427e-07
4.04473e-07
4.014e-07
4.02892e-07
3.99672e-07
3.98149e-07
3.97886e-07
3.97794e-07
3.97835e-07
3.97881e-07
3.98045e-07
3.97918e-07
3.98016e-07
3.9779e-07
3.98007e-07
3.99659e-07
4.01146e-07
4.01744e-07
4.03281e-07
4.02473e-07
4.03293e-07
4.03275e-07
4.03322e-07
4.02998e-07
4.02028e-07
4.02397e-07
4.02695e-07
3.98963e-07
3.9454e-07
4.08004e-07
3.92285e-07
2.82677e-07
3.43247e-07
8.50846e-07
1.70183e-06
3.11098e-06
3.46339e-06
2.8797e-06
2.35694e-06
3.62329e-06
3.74897e-06
4.36339e-06
4.26757e-06
4.72757e-06
4.48994e-06
4.72514e-06
4.57553e-06
5.02102e-06
4.96057e-06
5.36996e-06
5.17573e-06
5.40473e-06
5.30223e-06
5.50288e-06
5.46299e-06
5.66989e-06
5.50007e-06
5.38111e-06
5.69958e-06
6.10032e-06
5.57554e-06
5.98725e-06
6.11934e-06
5.9667e-06
5.98005e-06
6.21072e-06
6.65419e-06
6.59605e-06
6.50114e-06
6.50777e-06
6.71235e-06
6.68096e-06
6.63643e-06
6.41972e-06
6.807e-06
6.50978e-06
6.62688e-06
6.64958e-06
7.37051e-06
7.22863e-06
7.80789e-06
8.15095e-06
8.28614e-06
8.63636e-06
8.67448e-06
8.65117e-06
8.5675e-06
8.4644e-06
8.92093e-06
9.93301e-06
1.09484e-05
1.12487e-05
1.116e-05
1.09936e-05
1.12428e-05
1.10761e-05
1.12137e-05
1.18026e-05
1.21167e-05
1.26936e-05
1.31055e-05
1.3996e-05
1.47683e-05
1.50135e-05
1.61799e-05
1.71151e-05
1.79844e-05
1.85712e-05
1.93276e-05
2.01579e-05
2.06332e-05
2.08232e-05
2.12485e-05
2.1902e-05
2.2e-05
2.22093e-05
2.24763e-05
2.23372e-05
2.239e-05
2.23572e-05
2.22548e-05
2.21198e-05
2.19594e-05
2.16963e-05
2.14995e-05
2.12907e-05
2.10205e-05
2.08045e-05
2.04922e-05
2.02077e-05
1.99098e-05
1.96339e-05
1.9347e-05
1.90515e-05
1.87855e-05
1.85439e-05
1.8214e-05
1.80178e-05
1.76785e-05
1.74249e-05
1.71207e-05
1.68238e-05
1.64944e-05
1.6143e-05
1.57722e-05
1.53915e-05
1.49807e-05
1.45558e-05
1.41042e-05
1.36463e-05
1.31668e-05
1.27172e-05
1.22449e-05
1.17971e-05
1.12893e-05
1.0788e-05
1.02408e-05
9.68378e-06
9.07703e-06
8.4442e-06
7.74532e-06
7.00609e-06
6.23687e-06
5.47314e-06
4.72593e-06
4.0589e-06
3.47098e-06
2.96847e-06
2.42584e-06
1.79637e-06
1.21289e-06
9.28757e-07
8.89758e-07
7.59804e-07
4.86368e-07
3.45965e-07
3.97908e-07
4.34308e-07
3.48573e-07
3.3051e-07
4.01041e-07
5.08642e-07
5.13439e-07
4.94871e-07
4.41224e-07
4.02589e-07
4.18292e-07
4.54848e-07
4.24984e-07
4.10024e-07
3.85576e-07
4.08153e-07
5.22316e-07
4.17057e-07
2.26039e-07
4.00781e-07
4.95364e-07
3.78647e-07
3.16386e-07
3.88736e-07
6.8737e-07
3.82853e-07
3.55748e-07
7.98996e-07
4.31417e-07
4.33896e-07
8.84338e-07
1.54092e-06
1.03766e-06
9.80945e-07
1.69637e-06
2.42196e-06
2.97603e-06
3.54971e-06
4.0651e-06
4.832e-06
5.85891e-06
7.11788e-06
8.39123e-06
9.68336e-06
1.07701e-05
1.18919e-05
1.28901e-05
1.39326e-05
1.47901e-05
1.56658e-05
1.63467e-05
1.71418e-05
1.77592e-05
1.85027e-05
1.90215e-05
1.96588e-05
2.01149e-05
2.07092e-05
2.11262e-05
2.1642e-05
2.20904e-05
2.25408e-05
2.30896e-05
2.34678e-05
2.40959e-05
2.43451e-05
2.49102e-05
2.50341e-05
2.55788e-05
2.5675e-05
2.61905e-05
2.65876e-05
2.68091e-05
2.74831e-05
2.75511e-05
2.79713e-05
2.82119e-05
2.86875e-05
2.79487e-05
2.9231e-05
2.98563e-05
2.64693e-05
2.99694e-05
3.26969e-05
3.30802e-05
3.27202e-05
3.2083e-05
3.12048e-05
3.03277e-05
2.93044e-05
2.85555e-05
2.78936e-05
2.70249e-05
2.7103e-05
2.72934e-05
2.66248e-05
2.61388e-05
2.5981e-05
2.56029e-05
2.54285e-05
2.51996e-05
2.48728e-05
2.43788e-05
2.33014e-05
2.16773e-05
2.01149e-05
1.79776e-05
1.5242e-05
1.36143e-05
1.15186e-05
9.13182e-06
7.34972e-06
6.561e-06
5.97035e-06
5.59689e-06
5.21727e-06
4.9482e-06
4.3667e-06
3.91425e-06
3.34395e-06
3.00748e-06
3.09132e-06
3.16848e-06
2.77002e-06
2.6611e-06
2.75065e-06
2.71616e-06
2.48965e-06
2.58569e-06
2.57085e-06
2.18024e-06
1.70948e-06
1.2882e-06
1.28821e-06
1.10746e-06
1.12744e-06
1.4076e-06
1.98639e-06
2.48784e-06
2.76417e-06
3.2533e-06
3.68938e-06
4.34709e-06
3.99602e-06
3.16981e-06
2.87705e-06
2.03246e-06
1.59696e-06
1.4725e-06
1.46502e-06
1.58049e-06
1.04073e-06
9.30505e-07
1.07269e-06
9.88952e-07
1.07948e-06
1.3221e-06
1.17411e-06
1.26863e-06
1.10798e-06
1.15845e-06
1.32371e-06
1.44448e-06
1.46336e-06
1.71403e-06
1.85224e-06
1.91039e-06
1.90003e-06
1.91336e-06
6.89334e-07
2.76405e-06
1.73016e-06
6.56702e-06
2.52585e-06
1.56572e-05
1.43549e-05
1.34015e-05
8.04753e-06
2.76752e-06
9.5858e-07
5.88688e-07
5.13464e-07
4.39936e-07
4.16647e-07
4.02955e-07
3.98396e-07
4.00354e-07
4.00941e-07
4.02521e-07
4.03655e-07
4.03505e-07
4.03917e-07
4.04511e-07
4.03595e-07
4.01645e-07
4.03166e-07
3.99792e-07
3.97996e-07
3.97893e-07
3.9778e-07
3.97913e-07
3.97739e-07
3.97517e-07
3.97716e-07
3.9772e-07
3.97604e-07
3.98111e-07
3.9949e-07
4.01874e-07
4.01232e-07
4.01793e-07
4.03104e-07
4.03055e-07
4.03054e-07
4.02999e-07
4.01961e-07
4.02232e-07
4.00711e-07
3.99253e-07
3.97306e-07
3.99203e-07
3.9816e-07
3.91055e-07
5.23482e-07
8.18823e-07
7.12845e-07
7.0764e-07
1.25902e-06
2.10016e-06
2.62075e-06
2.3248e-06
2.2902e-06
2.48955e-06
2.5144e-06
2.61586e-06
2.63034e-06
2.688e-06
2.7545e-06
2.78987e-06
2.90814e-06
3.0706e-06
3.14486e-06
3.30265e-06
3.34134e-06
3.26572e-06
3.39385e-06
3.47004e-06
3.49427e-06
3.44848e-06
3.64378e-06
3.6388e-06
4.16635e-06
3.99393e-06
4.00281e-06
4.31234e-06
4.23975e-06
4.50572e-06
4.88452e-06
5.26727e-06
5.07454e-06
4.78335e-06
4.94693e-06
5.3188e-06
5.26678e-06
4.8653e-06
4.92007e-06
5.30034e-06
5.06498e-06
5.20757e-06
5.98681e-06
6.23341e-06
6.66614e-06
7.05708e-06
7.51742e-06
7.63116e-06
7.87395e-06
7.78459e-06
7.63064e-06
7.4389e-06
7.61263e-06
8.63346e-06
1.0219e-05
1.1108e-05
1.11038e-05
1.07784e-05
1.05882e-05
1.07801e-05
1.04534e-05
1.07735e-05
1.15602e-05
1.1908e-05
1.25553e-05
1.3094e-05
1.42563e-05
1.50049e-05
1.53109e-05
1.68968e-05
1.79733e-05
1.8966e-05
1.96402e-05
2.05935e-05
2.15516e-05
2.19618e-05
2.21085e-05
2.26686e-05
2.33262e-05
2.31934e-05
2.33647e-05
2.35916e-05
2.32337e-05
2.31556e-05
2.29251e-05
2.26134e-05
2.22646e-05
2.18864e-05
2.13628e-05
2.09718e-05
2.05482e-05
2.00845e-05
1.96887e-05
1.91848e-05
1.8728e-05
1.82988e-05
1.78815e-05
1.7499e-05
1.70601e-05
1.67405e-05
1.63873e-05
1.59819e-05
1.56975e-05
1.52748e-05
1.49312e-05
1.4508e-05
1.41302e-05
1.3643e-05
1.31835e-05
1.26251e-05
1.20954e-05
1.14744e-05
1.08591e-05
1.01619e-05
9.45082e-06
8.67019e-06
7.91356e-06
7.11301e-06
6.35206e-06
5.53899e-06
4.78116e-06
4.04927e-06
3.39454e-06
2.79859e-06
2.26675e-06
1.79158e-06
1.38712e-06
1.08282e-06
8.54122e-07
6.80097e-07
5.59531e-07
4.71995e-07
4.44077e-07
4.10925e-07
3.98773e-07
3.63931e-07
3.91509e-07
3.95802e-07
4.37241e-07
4.30822e-07
4.3824e-07
3.94565e-07
4.12179e-07
3.9693e-07
3.84441e-07
3.34024e-07
3.524e-07
3.6346e-07
3.8791e-07
3.78667e-07
4.05942e-07
3.99815e-07
3.76209e-07
4.24763e-07
4.27523e-07
4.09905e-07
4.70015e-07
3.04301e-07
4.55554e-07
4.97822e-07
4.77727e-07
3.63274e-07
4.71928e-07
3.6747e-07
4.05103e-07
3.29112e-07
3.46996e-07
2.86825e-07
4.45669e-07
3.94655e-07
3.00824e-07
3.96927e-07
5.40805e-07
3.02119e-07
4.05564e-07
4.01757e-07
4.00482e-07
4.42498e-07
5.39017e-07
4.65748e-07
6.42807e-07
7.1384e-07
9.27981e-07
1.25593e-06
1.71299e-06
2.06654e-06
2.63083e-06
3.2463e-06
4.08732e-06
4.93453e-06
5.93299e-06
6.80248e-06
7.99043e-06
9.10329e-06
1.04718e-05
1.16049e-05
1.28457e-05
1.38355e-05
1.49119e-05
1.5744e-05
1.66016e-05
1.74305e-05
1.81491e-05
1.91146e-05
1.97238e-05
2.08157e-05
2.12532e-05
2.22605e-05
2.24762e-05
2.34424e-05
2.35664e-05
2.44583e-05
2.49697e-05
2.55095e-05
2.63108e-05
2.67606e-05
2.70219e-05
2.79519e-05
2.79032e-05
2.80745e-05
2.85462e-05
3.02031e-05
2.72361e-05
3.09777e-05
3.40572e-05
3.45847e-05
3.46171e-05
3.42065e-05
3.34481e-05
3.25913e-05
3.14414e-05
3.05731e-05
2.99128e-05
2.88134e-05
2.89553e-05
2.9548e-05
2.8931e-05
2.83399e-05
2.82964e-05
2.79823e-05
2.79274e-05
2.78765e-05
2.76973e-05
2.7444e-05
2.6586e-05
2.46931e-05
2.29117e-05
2.06743e-05
1.74866e-05
1.54888e-05
1.34333e-05
1.05206e-05
7.96759e-06
6.88024e-06
6.36153e-06
5.99243e-06
5.58984e-06
5.35898e-06
4.69833e-06
3.96789e-06
3.29007e-06
2.81283e-06
3.03591e-06
3.20787e-06
2.64298e-06
2.41497e-06
2.69933e-06
2.7604e-06
2.41038e-06
2.52978e-06
2.53333e-06
1.86705e-06
1.10183e-06
7.39769e-07
7.72782e-07
7.76133e-07
8.39316e-07
1.06697e-06
1.4792e-06
2.16078e-06
2.64385e-06
3.35662e-06
4.24474e-06
5.33995e-06
4.79849e-06
3.77656e-06
3.16392e-06
1.46094e-06
1.30023e-06
1.45789e-06
1.12145e-06
1.2355e-06
7.74292e-07
8.31183e-07
1.29819e-06
1.15968e-06
1.15257e-06
1.10496e-06
1.04855e-06
1.22332e-06
1.10037e-06
1.28755e-06
1.2277e-06
1.46687e-06
1.27238e-06
1.33913e-06
1.15086e-06
1.1589e-06
1.56848e-06
6.95909e-07
1.46197e-06
7.08563e-07
1.98656e-06
7.89989e-07
8.41422e-07
9.52804e-06
1.66192e-05
1.56247e-05
9.02155e-06
3.96588e-06
1.73567e-06
7.80268e-07
5.32642e-07
4.51185e-07
3.99592e-07
3.93645e-07
4.00277e-07
4.01753e-07
4.02092e-07
4.0234e-07
4.0419e-07
4.04317e-07
4.04347e-07
4.04883e-07
4.03357e-07
4.01461e-07
4.03329e-07
3.99921e-07
3.98084e-07
3.98053e-07
3.98096e-07
3.97934e-07
3.97954e-07
3.97969e-07
3.98032e-07
3.97958e-07
3.98213e-07
3.98147e-07
3.99755e-07
4.02625e-07
4.01433e-07
4.02445e-07
4.03408e-07
4.02256e-07
4.02678e-07
4.03921e-07
4.03278e-07
4.01688e-07
4.00125e-07
3.98018e-07
3.9923e-07
4.05722e-07
4.15594e-07
4.88927e-07
5.75324e-07
4.32968e-07
4.18914e-07
9.45458e-07
1.67959e-06
2.23806e-06
2.78835e-06
2.92221e-06
2.84003e-06
2.87442e-06
2.83692e-06
2.86319e-06
2.772e-06
2.86736e-06
2.73148e-06
2.84596e-06
2.76957e-06
2.88486e-06
2.84842e-06
3.00816e-06
2.97845e-06
3.04174e-06
2.84225e-06
2.89377e-06
2.90567e-06
2.8075e-06
2.90902e-06
2.93481e-06
2.83177e-06
3.20299e-06
3.01324e-06
3.23754e-06
3.09246e-06
3.32053e-06
3.65305e-06
3.21113e-06
3.56619e-06
3.0382e-06
3.75001e-06
3.52195e-06
3.7323e-06
3.29714e-06
3.63566e-06
3.84805e-06
4.27738e-06
4.04421e-06
4.8122e-06
4.99105e-06
5.47665e-06
5.84518e-06
5.80387e-06
6.30941e-06
5.96733e-06
6.00262e-06
5.82155e-06
5.96281e-06
6.83925e-06
8.20219e-06
9.6691e-06
9.92305e-06
9.69126e-06
9.25545e-06
9.02904e-06
9.06427e-06
8.80766e-06
9.5372e-06
1.03843e-05
1.06622e-05
1.13234e-05
1.20537e-05
1.3296e-05
1.38278e-05
1.43104e-05
1.61728e-05
1.71964e-05
1.81901e-05
1.8911e-05
1.99889e-05
2.09259e-05
2.11725e-05
2.13022e-05
2.19771e-05
2.24686e-05
2.20607e-05
2.21961e-05
2.23258e-05
2.17423e-05
2.15279e-05
2.1079e-05
2.05584e-05
2.0004e-05
1.94178e-05
1.8657e-05
1.81134e-05
1.75045e-05
1.69041e-05
1.63668e-05
1.5723e-05
1.51389e-05
1.46332e-05
1.41034e-05
1.36683e-05
1.30956e-05
1.27634e-05
1.23068e-05
1.18598e-05
1.14835e-05
1.10213e-05
1.05608e-05
1.00536e-05
9.57825e-06
8.93196e-06
8.34335e-06
7.55131e-06
6.84372e-06
5.94054e-06
5.14716e-06
4.22543e-06
3.46366e-06
2.69994e-06
2.1838e-06
1.66148e-06
1.39067e-06
1.00691e-06
8.79437e-07
6.56634e-07
6.19156e-07
5.17483e-07
4.89386e-07
4.6468e-07
4.29211e-07
4.37892e-07
4.19263e-07
4.35259e-07
4.44388e-07
4.49973e-07
4.60286e-07
4.32618e-07
4.38874e-07
4.11941e-07
4.30486e-07
4.03861e-07
4.08944e-07
3.86532e-07
3.98073e-07
3.95224e-07
4.08332e-07
4.2304e-07
4.53587e-07
4.69901e-07
4.49242e-07
4.25006e-07
4.06371e-07
4.2403e-07
4.07757e-07
4.22507e-07
4.09962e-07
3.90988e-07
3.88126e-07
3.92255e-07
3.98872e-07
4.38504e-07
3.67351e-07
3.71445e-07
3.59969e-07
3.32833e-07
4.10696e-07
3.92635e-07
4.75228e-07
4.0639e-07
4.66769e-07
4.05044e-07
4.78818e-07
4.01524e-07
4.37812e-07
3.77965e-07
4.8378e-07
3.84304e-07
4.98954e-07
4.072e-07
4.88577e-07
4.04956e-07
5.07009e-07
3.68352e-07
5.38709e-07
3.86008e-07
5.06126e-07
4.24767e-07
5.55733e-07
4.14915e-07
6.20065e-07
4.97778e-07
7.19363e-07
7.01906e-07
1.00115e-06
1.00552e-06
1.44211e-06
1.74589e-06
2.51024e-06
3.09882e-06
4.06939e-06
4.96462e-06
6.16667e-06
7.21665e-06
8.33061e-06
9.53916e-06
1.0602e-05
1.20931e-05
1.3055e-05
1.4669e-05
1.53601e-05
1.67869e-05
1.71488e-05
1.84999e-05
1.87176e-05
1.99308e-05
2.06083e-05
2.14452e-05
2.24122e-05
2.31624e-05
2.34291e-05
2.47709e-05
2.45056e-05
2.53038e-05
2.53002e-05
2.74628e-05
2.56593e-05
2.91608e-05
3.21887e-05
3.25143e-05
3.287e-05
3.27683e-05
3.22805e-05
3.16178e-05
3.04995e-05
2.95851e-05
2.90693e-05
2.78276e-05
2.79306e-05
2.9006e-05
2.86634e-05
2.79943e-05
2.80717e-05
2.7884e-05
2.79776e-05
2.81852e-05
2.82421e-05
2.83252e-05
2.79975e-05
2.61922e-05
2.43267e-05
2.22105e-05
1.89361e-05
1.65361e-05
1.45866e-05
1.1577e-05
8.24899e-06
6.41676e-06
5.88199e-06
5.75613e-06
5.34522e-06
5.10277e-06
4.36387e-06
3.27469e-06
2.46516e-06
1.9219e-06
2.19992e-06
2.54406e-06
1.89867e-06
1.50274e-06
1.82151e-06
2.00619e-06
1.6426e-06
1.85468e-06
1.88338e-06
1.17719e-06
8.5739e-07
8.01787e-07
8.37135e-07
9.05341e-07
9.64478e-07
1.0732e-06
1.18394e-06
1.4047e-06
1.78952e-06
2.70835e-06
4.32296e-06
6.09471e-06
5.47479e-06
4.08945e-06
2.8728e-06
5.39355e-07
1.16972e-06
9.60669e-07
8.96227e-07
1.16419e-06
1.08188e-06
1.16973e-06
1.34534e-06
1.26286e-06
1.37481e-06
1.40506e-06
1.35528e-06
1.37468e-06
1.13724e-06
1.39185e-06
1.08945e-06
1.15931e-06
1.08919e-06
9.44203e-07
9.77216e-07
1.62902e-06
1.11588e-06
7.66873e-07
8.26353e-07
3.80313e-07
1.45481e-06
4.50317e-07
7.70409e-07
2.83527e-06
1.39419e-05
1.45863e-05
9.0417e-06
4.02637e-06
1.59009e-06
7.20313e-07
4.43158e-07
3.91726e-07
3.91284e-07
4.05052e-07
4.03532e-07
4.02806e-07
4.02545e-07
4.02602e-07
4.04356e-07
4.04484e-07
4.04709e-07
4.04311e-07
4.03462e-07
4.02121e-07
4.03086e-07
3.99976e-07
3.98066e-07
3.97768e-07
3.9746e-07
3.97778e-07
3.9777e-07
3.97816e-07
3.97647e-07
3.97817e-07
3.97735e-07
3.97755e-07
3.99471e-07
4.01578e-07
4.01817e-07
4.03061e-07
4.03354e-07
4.02304e-07
4.02864e-07
4.02795e-07
4.02917e-07
4.02274e-07
4.00151e-07
4.00641e-07
4.03779e-07
4.05017e-07
4.0425e-07
3.63657e-07
2.29999e-07
2.12224e-07
4.71419e-07
3.62713e-07
3.98527e-07
1.21047e-06
1.79669e-06
2.26373e-06
2.40813e-06
2.57517e-06
2.64446e-06
2.72091e-06
2.78919e-06
2.79289e-06
2.86545e-06
2.81995e-06
2.90498e-06
2.87583e-06
2.91961e-06
2.92123e-06
2.9184e-06
2.94595e-06
2.85866e-06
2.83984e-06
2.81918e-06
2.93842e-06
2.87761e-06
3.03869e-06
2.99572e-06
3.00252e-06
3.13238e-06
2.98673e-06
3.05123e-06
2.86584e-06
3.20047e-06
3.09952e-06
3.03994e-06
3.15629e-06
3.31418e-06
3.40492e-06
2.92533e-06
3.55108e-06
3.26491e-06
3.59343e-06
3.63835e-06
3.83572e-06
3.759e-06
4.20224e-06
4.33744e-06
4.53355e-06
4.20393e-06
4.90203e-06
4.53224e-06
4.65284e-06
5.15561e-06
5.41158e-06
6.39416e-06
7.15755e-06
7.96067e-06
7.7464e-06
7.51465e-06
7.0483e-06
6.84674e-06
7.01555e-06
7.27322e-06
8.16874e-06
8.63944e-06
8.83901e-06
9.60761e-06
1.04098e-05
1.13364e-05
1.16363e-05
1.24106e-05
1.41823e-05
1.49883e-05
1.58905e-05
1.66291e-05
1.77225e-05
1.84792e-05
1.85168e-05
1.86769e-05
1.93978e-05
1.95629e-05
1.88949e-05
1.89875e-05
1.89621e-05
1.81658e-05
1.78172e-05
1.71393e-05
1.64254e-05
1.56829e-05
1.48982e-05
1.39201e-05
1.32489e-05
1.24601e-05
1.17412e-05
1.10583e-05
1.02648e-05
9.54069e-06
8.96931e-06
8.32782e-06
7.84728e-06
7.12198e-06
6.84059e-06
6.27537e-06
5.83066e-06
5.3971e-06
4.99142e-06
4.44939e-06
4.04408e-06
3.56471e-06
3.04463e-06
2.58726e-06
2.04947e-06
1.68188e-06
1.21792e-06
1.00646e-06
7.13442e-07
6.21301e-07
4.84324e-07
4.94391e-07
4.01582e-07
4.58637e-07
3.72317e-07
4.29698e-07
3.77738e-07
4.08554e-07
3.90322e-07
3.93342e-07
3.99818e-07
3.92119e-07
4.08216e-07
3.94368e-07
3.98555e-07
3.77985e-07
3.75966e-07
3.66009e-07
3.81313e-07
3.8891e-07
4.07855e-07
4.05587e-07
4.13928e-07
4.0883e-07
4.20804e-07
4.16567e-07
4.24765e-07
4.08633e-07
3.97684e-07
3.65519e-07
3.61429e-07
3.62624e-07
3.93766e-07
3.98074e-07
4.05552e-07
3.98808e-07
4.08057e-07
4.14715e-07
4.11307e-07
4.28622e-07
4.20721e-07
4.51887e-07
3.83111e-07
4.61579e-07
4.34525e-07
4.50664e-07
4.44377e-07
4.07976e-07
3.74011e-07
3.92516e-07
3.75239e-07
3.92498e-07
3.70637e-07
3.96558e-07
3.82871e-07
4.00882e-07
3.70498e-07
3.90829e-07
3.56479e-07
3.87127e-07
3.55871e-07
3.96945e-07
3.54267e-07
4.08981e-07
3.32604e-07
4.05495e-07
3.26227e-07
4.04635e-07
3.24874e-07
4.14505e-07
3.24369e-07
4.42823e-07
3.26592e-07
4.71477e-07
3.46355e-07
5.21648e-07
3.61944e-07
5.35946e-07
3.76322e-07
5.9061e-07
4.73236e-07
7.43465e-07
7.23256e-07
1.08605e-06
1.34684e-06
1.66007e-06
2.29025e-06
2.61011e-06
3.77199e-06
4.3689e-06
6.09134e-06
6.87478e-06
8.61546e-06
9.15599e-06
1.08352e-05
1.13002e-05
1.2815e-05
1.38423e-05
1.49498e-05
1.62417e-05
1.7148e-05
1.76984e-05
1.90659e-05
1.90115e-05
2.00803e-05
1.97836e-05
2.21101e-05
2.21359e-05
2.52305e-05
2.77965e-05
2.76068e-05
2.81214e-05
2.83193e-05
2.81619e-05
2.78108e-05
2.68562e-05
2.59279e-05
2.56824e-05
2.44082e-05
2.43472e-05
2.5917e-05
2.60984e-05
2.54216e-05
2.56066e-05
2.55957e-05
2.58599e-05
2.63865e-05
2.67695e-05
2.72362e-05
2.76261e-05
2.63159e-05
2.45883e-05
2.26901e-05
1.96188e-05
1.69117e-05
1.49552e-05
1.21429e-05
8.5428e-06
5.83506e-06
4.81547e-06
4.75694e-06
4.44515e-06
4.341e-06
3.69477e-06
2.61793e-06
1.87819e-06
1.40152e-06
1.45105e-06
1.76301e-06
1.36463e-06
1.02413e-06
1.14007e-06
1.27353e-06
1.0979e-06
1.17283e-06
1.21369e-06
8.22792e-07
7.54419e-07
7.27618e-07
7.35594e-07
7.73199e-07
8.16031e-07
8.92549e-07
9.72918e-07
1.04546e-06
1.17287e-06
1.95006e-06
4.07221e-06
6.51845e-06
6.0092e-06
4.46802e-06
2.52083e-06
2.42927e-07
1.40697e-06
1.08334e-06
1.28384e-06
1.48033e-06
1.14215e-06
1.19254e-06
1.26036e-06
1.29831e-06
1.18759e-06
1.21608e-06
1.05541e-06
1.28557e-06
1.05278e-06
1.22073e-06
1.25247e-06
1.21253e-06
9.32199e-07
8.51887e-07
1.10774e-06
1.08294e-06
8.71716e-07
1.49081e-06
1.70673e-06
1.31236e-06
1.73741e-06
2.94808e-07
2.98936e-06
3.73622e-06
9.61088e-06
1.16927e-05
9.84143e-06
3.93892e-06
1.20694e-06
6.69631e-07
4.9061e-07
4.15224e-07
4.13967e-07
4.02942e-07
3.9864e-07
3.99749e-07
4.01893e-07
4.03185e-07
4.05287e-07
4.04613e-07
4.04572e-07
4.03861e-07
4.03116e-07
4.02171e-07
4.02946e-07
3.9956e-07
3.98087e-07
3.98028e-07
3.9813e-07
3.97916e-07
3.97834e-07
3.97863e-07
3.97955e-07
3.97841e-07
3.98115e-07
3.98463e-07
3.99347e-07
4.01361e-07
4.01323e-07
4.02181e-07
4.0235e-07
4.0299e-07
4.03959e-07
4.02178e-07
4.02449e-07
4.02074e-07
4.00329e-07
4.0012e-07
3.99586e-07
4.01153e-07
3.99784e-07
3.90381e-07
4.28399e-07
5.46764e-07
5.37869e-07
7.3976e-07
9.20944e-07
1.10444e-06
1.54798e-06
1.7486e-06
2.0528e-06
2.14431e-06
2.30344e-06
2.36552e-06
2.47799e-06
2.51126e-06
2.57964e-06
2.59071e-06
2.64386e-06
2.64075e-06
2.73773e-06
2.69947e-06
2.81469e-06
2.77542e-06
2.87929e-06
2.83419e-06
2.92238e-06
2.88342e-06
3.07698e-06
2.93336e-06
3.17071e-06
3.02688e-06
3.15061e-06
3.05636e-06
3.13351e-06
3.09605e-06
3.16178e-06
3.38157e-06
3.22015e-06
3.2478e-06
3.34682e-06
3.35499e-06
3.37207e-06
3.13932e-06
3.83208e-06
3.23783e-06
3.69099e-06
3.68454e-06
3.67576e-06
3.7934e-06
4.05603e-06
4.05849e-06
3.96677e-06
4.31547e-06
4.62362e-06
4.22178e-06
5.17338e-06
5.01044e-06
5.49469e-06
5.82673e-06
5.95152e-06
5.77855e-06
5.71503e-06
5.53332e-06
5.60251e-06
6.02896e-06
6.36979e-06
6.78106e-06
6.98427e-06
7.21888e-06
7.88833e-06
8.29854e-06
8.71633e-06
8.91049e-06
9.74912e-06
1.09563e-05
1.14653e-05
1.2206e-05
1.29123e-05
1.38502e-05
1.42761e-05
1.41233e-05
1.4355e-05
1.49914e-05
1.46972e-05
1.38076e-05
1.37967e-05
1.35223e-05
1.24755e-05
1.19318e-05
1.09348e-05
9.9644e-06
8.99461e-06
7.95783e-06
6.82445e-06
6.2147e-06
5.32672e-06
4.74967e-06
4.16953e-06
3.4947e-06
2.9894e-06
2.67633e-06
2.24528e-06
2.07776e-06
1.58386e-06
1.6363e-06
1.28675e-06
1.21492e-06
1.02244e-06
9.88547e-07
7.6837e-07
7.75829e-07
6.22339e-07
6.05231e-07
5.07626e-07
4.94886e-07
4.46153e-07
4.45786e-07
4.26248e-07
4.33908e-07
4.18661e-07
4.28535e-07
4.15949e-07
4.23264e-07
4.15233e-07
4.22459e-07
4.15631e-07
4.22919e-07
4.15269e-07
4.23804e-07
4.17328e-07
4.26564e-07
4.16924e-07
4.22704e-07
4.15496e-07
4.3005e-07
4.33241e-07
4.50099e-07
4.46108e-07
4.43132e-07
4.19283e-07
4.08663e-07
3.97421e-07
4.05585e-07
4.03173e-07
4.05438e-07
3.9263e-07
3.91655e-07
3.91952e-07
4.12254e-07
4.29921e-07
4.43593e-07
4.36325e-07
4.20417e-07
4.06296e-07
4.00536e-07
4.04604e-07
3.97032e-07
4.03445e-07
3.97571e-07
3.85154e-07
3.69695e-07
3.84685e-07
3.80626e-07
3.83272e-07
3.65467e-07
3.63275e-07
3.91941e-07
4.12058e-07
4.09098e-07
4.12429e-07
4.12683e-07
4.19593e-07
4.15094e-07
4.14658e-07
4.16814e-07
4.28308e-07
4.31478e-07
4.36179e-07
4.33787e-07
4.30421e-07
4.20256e-07
4.22885e-07
4.16206e-07
4.32443e-07
4.30435e-07
4.45427e-07
4.30454e-07
4.49808e-07
4.30965e-07
4.39695e-07
4.17715e-07
4.32907e-07
3.99942e-07
4.13487e-07
3.73979e-07
3.95453e-07
3.64497e-07
4.12436e-07
3.95264e-07
4.37863e-07
4.17594e-07
4.43419e-07
4.58352e-07
4.12579e-07
5.6895e-07
3.02038e-07
7.51054e-07
2.19802e-07
9.82085e-07
4.14319e-07
1.35036e-06
1.14887e-06
2.03774e-06
2.11489e-06
3.02212e-06
3.28321e-06
4.17564e-06
5.30854e-06
6.2452e-06
7.91179e-06
8.84912e-06
9.70056e-06
1.11212e-05