/*--------------------------------*- C++ -*----------------------------------*\
| =========                 |                                                 |
| \\      /  F ield         | OpenFOAM: The Open Source CFD Toolbox           |
|  \\    /   O peration     | Version:  v2006                                 |
|   \\  /    A nd           | Website:  www.openfoam.com                      |
|    \\/     M anipulation  |                                                 |
\*---------------------------------------------------------------------------*/
FoamFile
{
    version     2.0;
    format      ascii;
    class       volScalarField;
    location    "50";
    object      p;
}
// * * * * * * * * * * * * * * * * * * * * * * * * * * * * * * * * * * * * * //

dimensions      [1 -1 -2 0 0 0 0];


internalField   nonuniform List<scalar> 
93840
(
1.00322
1.0102
0.995679
0.996667
1.01396
0.997195
1.00816
1.0042
1.00374
1.00961
1.009
1.01287
1.01382
1.02179
1.02511
1.03374
1.03892
1.04803
1.05029
1.05931
1.08071
1.05945
0.987114
0.949314
0.999944
1.07101
1.07258
1.02495
1.02505
0.99533
0.970858
0.998935
0.991564
1.00673
1.01607
1.02025
1.02909
1.03063
1.03798
1.03899
1.046
1.04608
1.04938
1.05073
1.0524
1.05493
1.0579
1.059
1.05981
1.06342
1.06235
1.06603
1.06562
1.06746
1.0695
1.06904
1.07027
1.07118
1.07209
1.07304
1.07364
1.07525
1.07601
1.07747
1.07753
1.0788
1.08107
1.08064
1.08136
1.08283
1.08355
1.08433
1.08381
1.08417
1.08426
1.08302
1.08251
1.08226
1.08025
1.07923
1.07797
1.07677
1.07519
1.0738
1.07184
1.07003
1.06801
1.06565
1.06364
1.06121
1.05808
1.05495
1.05162
1.04838
1.04477
1.04045
1.03631
1.03185
1.02723
1.02205
1.01659
1.01133
1.00587
0.996585
0.987109
0.983625
0.980693
0.973182
0.964929
0.956605
0.948485
0.940166
0.932245
0.92244
0.91365
0.904829
0.897054
0.887872
0.880947
0.873611
0.868651
0.862267
0.860843
0.857036
0.862668
0.865528
0.863884
0.876816
0.877373
0.885141
0.89151
0.899613
0.905549
0.913644
0.917916
0.925207
0.932359
0.942461
0.944508
0.954289
0.955243
0.964075
0.968233
0.977091
0.979908
0.987717
0.99139
0.998245
1.00224
1.01055
1.01397
1.02309
1.02637
1.03613
1.04039
1.04902
1.05435
1.06326
1.07012
1.07971
1.08694
1.0959
1.10182
1.11179
1.12152
1.13389
1.14317
1.15594
1.16594
1.17837
1.19279
1.20914
1.22596
1.24253
1.25961
1.27946
1.30285
1.33189
1.35973
1.38952
1.408
1.43046
1.40521
1.34291
1.22398
1.09667
0.952974
0.862322
0.821158
0.810881
0.730942
0.676751
0.64749
0.631226
0.587763
0.590733
0.576885
0.580305
0.57541
0.576175
0.580615
0.583622
0.586991
0.588749
0.591566
0.594821
0.600287
0.604711
0.609897
0.611835
0.61298
0.614063
0.615317
0.616017
0.618184
0.619949
0.621966
0.622965
0.623735
0.623645
0.614223
0.613103
0.61412
0.614435
0.614691
0.615471
0.616238
0.617051
0.619162
0.620552
0.618598
0.614172
0.609185
0.606447
0.601367
0.601888
0.600971
0.600614
0.600725
0.600876
0.600892
0.601637
0.602244
0.603186
0.606726
0.614466
0.635211
0.688321
0.757877
0.778181
0.766291
0.774143
0.773893
0.778344
0.781201
0.786146
0.790583
0.796469
0.803984
0.812731
0.821313
0.830446
0.839036
0.848146
0.856938
0.866076
0.874386
0.883544
0.894853
0.905593
0.911911
0.918404
0.927477
0.936764
0.943294
0.948774
0.954682
0.960041
0.964852
0.967858
0.971029
0.971811
0.970823
0.972005
0.9727
0.973148
0.972786
0.972893
0.972371
0.972789
0.972526
0.971498
0.971763
0.971928
0.97224
0.972916
0.972766
0.972308
0.972015
0.971326
0.970992
0.970529
0.969527
0.970615
0.969806
0.969334
0.968938
0.969727
0.971169
0.97127
0.972376
0.972665
0.972066
0.969104
0.969159
0.970105
0.971002
0.972105
0.972054
0.972126
0.971363
0.972036
0.97059
0.972331
0.973408
0.974121
0.973608
0.975486
0.976543
0.975206
0.975085
0.978837
0.983658
0.975776
0.983446
0.967608
0.960776
0.972928
0.964802
1.02762
1.02577
1.08777
1.07399
1.0058
0.952895
0.986915
1.05248
1.08105
1.05926
1.05107
1.04891
1.03869
1.03384
1.02458
1.02127
1.01331
1.01288
1.00858
1.00994
1.00351
1.00418
1.00781
0.996579
1.01358
0.996321
0.995256
1.00971
1.00254
1.00257
1.00974
0.995258
0.99634
1.01363
0.996631
1.0078
1.00417
1.00349
1.00996
1.00863
1.0129
1.0133
1.02155
1.02481
1.03369
1.03872
1.04895
1.05064
1.05884
1.07855
1.06113
1.0076
0.957842
1.00649
1.06649
1.06787
1.03058
1.02109
1.00008
0.994341
0.994141
1.00639
1.00878
1.01904
1.02048
1.02926
1.03166
1.03701
1.03863
1.04687
1.04491
1.04997
1.04932
1.05237
1.05452
1.05722
1.05882
1.05919
1.06237
1.0632
1.06462
1.067
1.06684
1.06863
1.06931
1.06982
1.0707
1.07244
1.07198
1.07324
1.07496
1.07673
1.07642
1.07748
1.07833
1.08105
1.08081
1.08125
1.08205
1.08405
1.08387
1.08394
1.08385
1.08435
1.08278
1.08257
1.08194
1.08018
1.07932
1.07786
1.07647
1.07529
1.07364
1.07182
1.0699
1.06799
1.06555
1.06355
1.06113
1.05797
1.05489
1.05157
1.04831
1.04473
1.04041
1.03627
1.03182
1.0272
1.02203
1.01659
1.0113
1.00579
0.996667
0.987408
0.98378
0.980637
0.973197
0.965066
0.956778
0.948692
0.940389
0.932476
0.92274
0.914033
0.90525
0.897484
0.888405
0.881547
0.874275
0.869305
0.863074
0.861667
0.857988
0.863499
0.866269
0.864773
0.877405
0.878102
0.885916
0.892144
0.900244
0.906108
0.914263
0.918636
0.925862
0.932939
0.94304
0.94502
0.954814
0.955909
0.964608
0.968762
0.977539
0.980476
0.988271
0.992025
0.998955
1.00301
1.01142
1.01483
1.02405
1.02738
1.03709
1.04143
1.05029
1.05556
1.06474
1.07132
1.0809
1.08852
1.09793
1.10422
1.11428
1.12437
1.13688
1.14628
1.15916
1.17
1.18326
1.19856
1.21507
1.23105
1.24787
1.26688
1.28764
1.31019
1.33375
1.35812
1.38175
1.39527
1.41277
1.38697
1.35146
1.27266
1.17237
1.05761
0.957387
0.889107
0.852291
0.782295
0.727696
0.685786
0.659025
0.611918
0.61059
0.594875
0.592822
0.584789
0.585326
0.587772
0.589438
0.59179
0.593185
0.595552
0.59872
0.603402
0.607521
0.612379
0.614009
0.61519
0.616117
0.617251
0.61778
0.61963
0.621265
0.623212
0.624184
0.625005
0.624942
0.615642
0.614155
0.614916
0.615111
0.615659
0.616245
0.616737
0.61756
0.619568
0.621056
0.619324
0.614835
0.609894
0.607159
0.601849
0.602111
0.601603
0.601231
0.601064
0.601139
0.601302
0.60214
0.602637
0.603588
0.607126
0.614746
0.635533
0.688756
0.758406
0.778292
0.766298
0.77453
0.774149
0.778534
0.781388
0.786376
0.790854
0.796766
0.804257
0.812982
0.82154
0.830658
0.839239
0.84834
0.857107
0.866236
0.874598
0.88378
0.894939
0.905559
0.911979
0.918582
0.927579
0.936751
0.943275
0.948796
0.954701
0.960026
0.964818
0.96784
0.97104
0.971776
0.97086
0.972049
0.972846
0.973136
0.972793
0.972854
0.972465
0.972732
0.972471
0.971594
0.971414
0.971923
0.972334
0.972928
0.972806
0.972131
0.972113
0.971295
0.970651
0.970908
0.969377
0.970432
0.969913
0.969385
0.969046
0.969739
0.971298
0.97149
0.972491
0.972515
0.971897
0.969219
0.969278
0.970093
0.970944
0.972151
0.971866
0.971918
0.971253
0.971738
0.971059
0.972525
0.973615
0.97413
0.974492
0.97562
0.977413
0.975286
0.975522
0.980488
0.981432
0.976726
0.987263
0.967676
0.977687
0.962777
0.98223
1.02357
1.02263
1.07216
1.07739
1.0002
0.948471
0.989195
1.04985
1.08086
1.05981
1.05043
1.04854
1.03889
1.03386
1.02496
1.02152
1.01387
1.01288
1.00901
1.00962
1.00376
1.00417
1.00828
0.997143
1.01383
0.996826
0.995761
1.01016
1.00328
1.00318
1.01025
0.9956
0.996519
1.01379
0.997224
1.0082
1.00428
1.00377
1.00964
1.00906
1.01289
1.01381
1.02185
1.02548
1.03345
1.0387
1.04893
1.0503
1.05822
1.0761
1.06028
1.01399
0.968932
1.0072
1.06826
1.07108
1.03522
1.02289
1.01017
1.00242
1.01073
1.00866
1.01377
1.02166
1.02133
1.03217
1.0291
1.0406
1.03873
1.04525
1.04542
1.04907
1.0502
1.05236
1.0548
1.05666
1.05924
1.06009
1.06229
1.06286
1.06411
1.06706
1.06585
1.06863
1.06936
1.06966
1.07132
1.07156
1.07221
1.07345
1.075
1.07649
1.0764
1.07714
1.07846
1.08062
1.08079
1.08107
1.08215
1.08376
1.08401
1.08375
1.08382
1.08426
1.0827
1.08245
1.08178
1.08016
1.0791
1.0778
1.07649
1.07514
1.07356
1.07175
1.06983
1.06795
1.06547
1.06348
1.06108
1.05789
1.05484
1.05151
1.04826
1.04467
1.04036
1.03623
1.03178
1.02717
1.02202
1.01658
1.01128
1.00577
0.996682
0.987497
0.983858
0.980634
0.973205
0.965118
0.956872
0.948812
0.940536
0.932615
0.922922
0.914263
0.905506
0.897774
0.888723
0.881944
0.874664
0.869749
0.863473
0.862149
0.858506
0.864217
0.866854
0.865266
0.877979
0.878584
0.88631
0.892536
0.900587
0.906439
0.914613
0.918824
0.926131
0.93312
0.943188
0.945291
0.955047
0.956057
0.965017
0.969106
0.978055
0.980979
0.988908
0.992607
0.999627
1.00361
1.01189
1.01547
1.0246
1.02793
1.03786
1.04229
1.05103
1.05677
1.06543
1.07258
1.08209
1.0894
1.09851
1.10501
1.11521
1.12504
1.13764
1.14738
1.16053
1.17092
1.18415
1.19902
1.21545
1.23228
1.24951
1.26737
1.28716
1.30922
1.33638
1.36131
1.3892
1.40098
1.42157
1.39396
1.35243
1.26948
1.17379
1.05597
0.963059
0.894608
0.863531
0.789787
0.734485
0.695204
0.671118
0.621179
0.617685
0.601057
0.59827
0.591222
0.590364
0.59187
0.592406
0.594638
0.595775
0.597773
0.600561
0.605384
0.609144
0.613823
0.615553
0.61645
0.617401
0.618339
0.61867
0.620542
0.622034
0.624013
0.624935
0.625648
0.625785
0.616387
0.614674
0.615303
0.6157
0.615804
0.616294
0.617126
0.618019
0.619984
0.62143
0.61952
0.615502
0.610407
0.607412
0.602299
0.602515
0.601407
0.601209
0.601282
0.601503
0.601864
0.602245
0.602991
0.603783
0.607208
0.614804
0.63537
0.688569
0.759216
0.778927
0.766549
0.774567
0.774261
0.778644
0.781594
0.786526
0.791049
0.796937
0.804427
0.813133
0.821701
0.83079
0.839366
0.848443
0.857202
0.866318
0.874684
0.883849
0.894941
0.905545
0.912
0.918632
0.927581
0.936711
0.943248
0.948803
0.954705
0.960021
0.964826
0.967823
0.971008
0.971701
0.970785
0.972032
0.972619
0.973179
0.97277
0.972981
0.972423
0.97265
0.972603
0.971339
0.971876
0.971874
0.972364
0.972947
0.972816
0.972464
0.971907
0.971276
0.970437
0.970838
0.969534
0.970259
0.969854
0.968949
0.969253
0.969534
0.971139
0.971677
0.972551
0.972202
0.972186
0.969204
0.969358
0.969771
0.970569
0.971275
0.971814
0.972241
0.972043
0.972257
0.970417
0.972813
0.972347
0.974262
0.974224
0.975874
0.976698
0.976913
0.97701
0.980546
0.980045
0.984548
0.982961
0.97198
0.974664
0.972378
0.986412
1.02229
1.02631
1.08457
1.06467
1.00736
0.945032
0.993945
1.04945
1.0839
1.06043
1.05028
1.04879
1.03901
1.03405
1.02446
1.02102
1.0133
1.0129
1.0085
1.00992
1.00344
1.00427
1.00781
0.99653
1.01371
0.996282
0.995274
1.00966
1.00261
1.00261
1.00976
0.9952
0.996185
1.01369
0.996642
1.00784
1.00411
1.0034
1.00996
1.00865
1.01288
1.01326
1.02154
1.02494
1.03336
1.03852
1.04924
1.05074
1.05735
1.07359
1.05779
1.01965
0.980088
1.00614
1.06971
1.06484
1.03298
1.02811
1.01216
1.01378
1.01188
1.0137
1.01711
1.02285
1.02632
1.02937
1.03354
1.03754
1.04001
1.04632
1.04519
1.04865
1.04965
1.05299
1.05351
1.05698
1.05798
1.05906
1.06276
1.06263
1.06406
1.06622
1.0667
1.06786
1.06943
1.0689
1.07077
1.07203
1.07182
1.07256
1.07452
1.07646
1.07573
1.07777
1.07782
1.08068
1.08071
1.0806
1.08223
1.08332
1.08412
1.0836
1.08382
1.08413
1.08261
1.08228
1.08183
1.08004
1.07897
1.07767
1.07638
1.07508
1.07345
1.07172
1.06972
1.0679
1.06537
1.0634
1.06096
1.0578
1.05476
1.05143
1.0482
1.04461
1.04032
1.0362
1.03174
1.02713
1.02199
1.01658
1.01127
1.0057
0.996763
0.987788
0.98402
0.980622
0.973266
0.965288
0.957054
0.949025
0.940763
0.932869
0.923216
0.91463
0.905912
0.898177
0.889254
0.882495
0.875317
0.870309
0.864297
0.862882
0.859397
0.864848
0.867409
0.866089
0.878307
0.879097
0.886984
0.892987
0.90109
0.906947
0.915184
0.919618
0.926821
0.933711
0.943875
0.945697
0.955602
0.956731
0.965368
0.969494
0.97827
0.981368
0.989245
0.992976
1.00006
1.00417
1.0128
1.01613
1.0254
1.02872
1.03845
1.04296
1.05212
1.05729
1.06666
1.07321
1.08261
1.09035
1.0999
1.10688
1.11705
1.12733
1.13973
1.14912
1.16198
1.17343
1.18703
1.2027
1.21912
1.23527
1.25251
1.27165
1.29218
1.31293
1.3369
1.35954
1.37728
1.39214
1.406
1.38891
1.36148
1.28792
1.20559
1.10625
1.01403
0.940238
0.892602
0.823044
0.769321
0.723486
0.689037
0.640202
0.633819
0.612621
0.608558
0.600083
0.59702
0.595584
0.596616
0.598554
0.599061
0.60098
0.602699
0.607432
0.611074
0.615637
0.617304
0.618581
0.619015
0.620007
0.620426
0.622168
0.623383
0.625238
0.625851
0.627076
0.62708
0.61767
0.615876
0.616235
0.616287
0.616499
0.61708
0.617693
0.618612
0.62046
0.621898
0.620443
0.616107
0.610993
0.608225
0.602617
0.60274
0.60217
0.601725
0.601469
0.601821
0.602217
0.602812
0.603433
0.604183
0.607583
0.614896
0.635363
0.688905
0.760262
0.779299
0.766592
0.774872
0.774548
0.778918
0.781773
0.786791
0.791304
0.797228
0.80468
0.813401
0.821915
0.830995
0.839557
0.84864
0.857372
0.866486
0.874899
0.884093
0.895069
0.905554
0.912067
0.918771
0.92765
0.936696
0.943228
0.948809
0.9547
0.959992
0.964759
0.967764
0.971003
0.971651
0.970928
0.972109
0.972821
0.973253
0.972708
0.972833
0.972455
0.972619
0.972411
0.971617
0.971567
0.971862
0.97237
0.972842
0.972824
0.972274
0.971885
0.971116
0.97064
0.970809
0.969499
0.970345
0.969902
0.969211
0.969183
0.969338
0.970968
0.971539
0.972485
0.972215
0.972231
0.969424
0.969509
0.969957
0.970659
0.97155
0.97178
0.972154
0.971996
0.972599
0.971225
0.973079
0.97287
0.974589
0.974135
0.975219
0.975995
0.975874
0.977278
0.976911
0.979777
0.977939
0.985624
0.97516
0.983006
0.977756
0.999178
1.0276
1.02009
1.06856
1.05677
0.983455
0.924976
0.996455
1.0567
1.08532
1.06135
1.04926
1.04828
1.03927
1.03394
1.02448
1.02136
1.01382
1.01284
1.00898
1.00967
1.00371
1.00413
1.00833
0.997084
1.0139
0.996773
0.99571
1.01011
1.00317
1.00322
1.01028
0.995614
0.996695
1.01388
0.997239
1.00829
1.00437
1.00376
1.0096
1.0091
1.01285
1.01379
1.02183
1.0255
1.03315
1.03917
1.04906
1.05035
1.05648
1.07163
1.05358
1.02097
0.989269
1.00187
1.06358
1.06297
1.03665
1.03188
1.02123
1.01791
1.01654
1.01685
1.02237
1.02446
1.02728
1.03067
1.03448
1.04019
1.04088
1.04579
1.04488
1.05002
1.0501
1.05183
1.054
1.05759
1.05652
1.06139
1.06197
1.06135
1.0648
1.06518
1.06648
1.06786
1.06887
1.06927
1.07067
1.07154
1.0715
1.07335
1.07451
1.07545
1.07588
1.07742
1.07738
1.08099
1.08012
1.08087
1.08175
1.08363
1.0838
1.08352
1.08371
1.084
1.0825
1.08225
1.08156
1.07986
1.07896
1.07753
1.07623
1.07495
1.07339
1.07158
1.06964
1.06776
1.06529
1.0633
1.06086
1.0577
1.05466
1.05135
1.0481
1.04452
1.04024
1.03613
1.03168
1.02708
1.02197
1.01656
1.01125
1.00568
0.996766
0.987872
0.984113
0.980611
0.973258
0.965337
0.957179
0.949189
0.940971
0.933054
0.923476
0.914956
0.906274
0.898588
0.889673
0.883049
0.875825
0.870944
0.864776
0.863552
0.860077
0.865847
0.868201
0.866684
0.879168
0.879839
0.887475
0.89364
0.901622
0.907437
0.915698
0.91988
0.927232
0.934093
0.943993
0.946241
0.955782
0.956979
0.96587
0.969973
0.978872
0.981928
0.989908
0.993707
1.00101
1.00499
1.01314
1.01674
1.02599
1.02945
1.0394
1.04385
1.05258
1.05855
1.06709
1.07429
1.0837
1.09119
1.10053
1.10743
1.11753
1.12763
1.14018
1.15014
1.16351
1.17419
1.18755
1.20246
1.21877
1.23534
1.25282
1.27126
1.29077
1.31171
1.33559
1.35672
1.37774
1.38905
1.40234
1.37771
1.3466
1.27653
1.20056
1.09938
1.01618
0.941189
0.897584
0.828857
0.774647
0.72991
0.701562
0.649626
0.639721
0.618555
0.614557
0.60413
0.602799
0.600859
0.601157
0.601992
0.602113
0.603745
0.605118
0.609562
0.612951
0.61733
0.618989
0.620316
0.620611
0.621341
0.621668
0.623276
0.62428
0.62625
0.627004
0.627554
0.627998
0.619172
0.616197
0.616542
0.616718
0.617409
0.617579
0.618159
0.61911
0.620978
0.622346
0.620768
0.616845
0.611831
0.608803
0.603243
0.602975
0.602286
0.602119
0.601986
0.602173
0.602714
0.603087
0.603723
0.604484
0.607814
0.614737
0.634945
0.689164
0.760739
0.780509
0.767028
0.774978
0.77483
0.779094
0.782091
0.786978
0.791584
0.797457
0.804933
0.813608
0.822163
0.831193
0.839752
0.848788
0.857508
0.866599
0.875007
0.884158
0.895031
0.905513
0.912084
0.91883
0.927659
0.936632
0.943189
0.94878
0.95467
0.959939
0.964723
0.967734
0.970875
0.971586
0.970748
0.972054
0.972652
0.973171
0.972673
0.97292
0.972516
0.972557
0.972577
0.971651
0.971481
0.971904
0.972369
0.972909
0.972911
0.972534
0.971994
0.971538
0.970553
0.970565
0.969877
0.970052
0.969842
0.969167
0.969378
0.969252
0.970779
0.971341
0.972479
0.971915
0.972317
0.970023
0.969251
0.969546
0.969978
0.970929
0.971855
0.972538
0.971363
0.972537
0.970449
0.972675
0.97185
0.973997
0.973473
0.975198
0.975074
0.977382
0.977492
0.976898
0.978563
0.980512
0.982378
0.979798
0.982065
0.984869
0.99345
1.02233
1.02254
1.06658
1.0637
0.974897
0.917066
0.997173
1.062
1.08835
1.05924
1.04961
1.04916
1.03884
1.03415
1.02452
1.02086
1.01337
1.01294
1.00849
1.00993
1.00336
1.00426
1.00779
0.996477
1.01358
0.996319
0.995205
1.00962
1.00263
1.00251
1.00978
0.995213
0.995931
1.01375
0.996686
1.00788
1.00413
1.00344
1.00998
1.00874
1.01299
1.0133
1.0218
1.02517
1.03313
1.03879
1.0493
1.05024
1.05588
1.0706
1.04978
1.01957
0.990241
1.00102
1.07954
1.05695
1.03797
1.03395
1.02313
1.02262
1.01993
1.02469
1.02271
1.02851
1.02664
1.03445
1.03394
1.04166
1.04023
1.04721
1.04407
1.04879
1.05011
1.05136
1.05397
1.05552
1.05867
1.05916
1.0623
1.06176
1.06388
1.06471
1.06606
1.06808
1.06781
1.06981
1.0693
1.07159
1.07174
1.07239
1.07422
1.07504
1.07527
1.07789
1.07719
1.08068
1.0796
1.08069
1.08177
1.08301
1.08404
1.08309
1.08393
1.08359
1.08249
1.082
1.08158
1.07973
1.07864
1.0774
1.07623
1.07466
1.07339
1.07137
1.0696
1.06762
1.06519
1.06316
1.06068
1.05758
1.05452
1.05123
1.04802
1.04441
1.04017
1.03607
1.03161
1.02702
1.02191
1.01653
1.01123
1.00559
0.996837
0.988204
0.984317
0.980623
0.973351
0.965556
0.957393
0.949441
0.941241
0.933366
0.923813
0.915374
0.906742
0.899044
0.890307
0.883674
0.876608
0.871553
0.865791
0.86439
0.861086
0.866527
0.868795
0.867748
0.879422
0.880304
0.888262
0.89405
0.90211
0.907993
0.916242
0.920757
0.927957
0.93461
0.944875
0.946489
0.956555
0.957687
0.966321
0.970303
0.979058
0.982303
0.99037
0.994175
1.0015
1.00547
1.0142
1.01744
1.02687
1.03032
1.03998
1.04452
1.05389
1.05902
1.06848
1.07513
1.08445
1.0923
1.1017
1.109
1.11951
1.13
1.14203
1.15159
1.16482
1.17663
1.19009
1.20536
1.2216
1.23835
1.25571
1.2746
1.29463
1.3137
1.33496
1.35386
1.37343
1.38
1.39457
1.37443
1.35427
1.29106
1.22332
1.1397
1.05417
0.980701
0.926556
0.86076
0.806704
0.756628
0.720293
0.670355
0.656841
0.632245
0.625952
0.613385
0.60776
0.603934
0.605787
0.605383
0.604841
0.606009
0.608349
0.611467
0.615481
0.618523
0.62127
0.621998
0.622422
0.623066
0.623343
0.62455
0.625683
0.627474
0.627905
0.629262
0.629161
0.620104
0.618264
0.617808
0.617809
0.617584
0.618157
0.618909
0.619728
0.62166
0.622785
0.621794
0.617723
0.612526
0.609524
0.603761
0.603735
0.602538
0.602173
0.60226
0.602891
0.603229
0.603591
0.60428
0.604894
0.608211
0.614827
0.634382
0.689526
0.761724
0.781529
0.767429
0.775041
0.775108
0.779624
0.782414
0.787371
0.791895
0.797809
0.805213
0.813942
0.822404
0.831424
0.839955
0.849013
0.8577
0.866794
0.875258
0.884438
0.895207
0.905538
0.91216
0.918948
0.927677
0.936577
0.943146
0.94876
0.954613
0.959879
0.964631
0.967624
0.970793
0.971565
0.970938
0.972144
0.972739
0.973288
0.972685
0.972924
0.972436
0.972633
0.972438
0.971631
0.971597
0.971866
0.972417
0.972785
0.972753
0.972221
0.972272
0.971444
0.971167
0.970175
0.969866
0.970236
0.969876
0.969161
0.969501
0.969324
0.970604
0.971336
0.97257
0.972212
0.972342
0.970134
0.969416
0.969486
0.969848
0.971113
0.971745
0.972406
0.971985
0.972731
0.970793
0.972872
0.971183
0.973512
0.973137
0.975066
0.975299
0.977646
0.978693
0.976689
0.979004
0.975071
0.984133
0.975187
0.987013
0.982584
0.998151
1.01817
1.01918
1.0595
1.0572
0.970172
0.905381
0.99685
1.06392
1.09145
1.06139
1.04835
1.0478
1.03958
1.03376
1.02418
1.02111
1.01386
1.01298
1.00898
1.0097
1.00383
1.00409
1.00818
0.997027
1.01392
0.996741
0.995711
1.01007
1.00314
1.00329
1.01032
0.99561
0.996513
1.01385
0.997271
1.008
1.00439
1.0037
1.00956
1.0091
1.01287
1.01395
1.02178
1.02537
1.03306
1.03952
1.04916
1.04997
1.05559
1.07004
1.0473
1.0167
0.991686
0.990002
1.076
1.05757
1.04033
1.03403
1.02779
1.0259
1.02478
1.0265
1.0278
1.02902
1.03147
1.03512
1.03797
1.04066
1.04232
1.04419
1.04488
1.04972
1.04959
1.05252
1.05308
1.05692
1.05885
1.05846
1.06237
1.06111
1.06298
1.06563
1.06516
1.06832
1.06822
1.068
1.07013
1.07069
1.07165
1.07179
1.07461
1.07419
1.07564
1.07683
1.07747
1.07983
1.07984
1.08045
1.08204
1.08262
1.0838
1.08304
1.0835
1.08373
1.08223
1.08193
1.08128
1.07953
1.0785
1.07719
1.07606
1.07451
1.07316
1.07133
1.06937
1.06747
1.06507
1.06301
1.06055
1.05745
1.05439
1.05112
1.04789
1.0443
1.04006
1.03598
1.03153
1.02695
1.0219
1.01652
1.0112
1.00557
0.996837
0.988285
0.984425
0.98061
0.973336
0.965607
0.957549
0.949648
0.94151
0.9336
0.924147
0.915788
0.907198
0.899568
0.890813
0.884358
0.877208
0.872349
0.866324
0.865187
0.861894
0.867631
0.869683
0.868311
0.880389
0.881284
0.888803
0.894909
0.902789
0.908568
0.916907
0.921115
0.92853
0.935242
0.944893
0.947343
0.956594
0.958092
0.966784
0.970932
0.979755
0.982988
0.990944
0.994772
1.00229
1.00634
1.01456
1.0183
1.02746
1.03092
1.04072
1.04531
1.0539
1.06012
1.06891
1.07617
1.08529
1.09281
1.10248
1.10986
1.11983
1.12999
1.14234
1.15258
1.1657
1.17701
1.19075
1.20522
1.22123
1.23766
1.25517
1.27357
1.29236
1.31123
1.33284
1.34921
1.36719
1.37501
1.38723
1.36394
1.33681
1.2753
1.21442
1.12803
1.05245
0.978331
0.930563
0.863659
0.810558
0.761616
0.729523
0.679391
0.661904
0.636082
0.632036
0.618256
0.613269
0.609773
0.6103
0.609412
0.60925
0.609244
0.611052
0.613266
0.617724
0.620923
0.622799
0.624007
0.624035
0.624617
0.624809
0.625889
0.626758
0.62848
0.629014
0.629983
0.630779
0.621818
0.618234
0.618724
0.618537
0.61851
0.618796
0.619329
0.620197
0.622117
0.623335
0.622385
0.618433
0.613483
0.61036
0.604425
0.604028
0.603258
0.602645
0.602778
0.603332
0.603606
0.604148
0.60458
0.605357
0.608531
0.614674
0.633784
0.689379
0.763658
0.782529
0.767952
0.775148
0.77558
0.779887
0.782865
0.787613
0.792279
0.798111
0.805557
0.81421
0.822752
0.831702
0.840234
0.849218
0.857889
0.866948
0.875398
0.884512
0.895143
0.90549
0.912185
0.91903
0.92771
0.936505
0.943086
0.948718
0.954538
0.959781
0.964542
0.967562
0.970628
0.971448
0.970767
0.972011
0.972632
0.973129
0.972593
0.972956
0.97242
0.972624
0.972377
0.971831
0.971351
0.971978
0.972196
0.972871
0.972787
0.972799
0.971518
0.971439
0.971318
0.969999
0.969719
0.970429
0.969902
0.968613
0.969691
0.969293
0.970507
0.971216
0.972591
0.972273
0.972145
0.970708
0.969029
0.969084
0.968808
0.970593
0.9717
0.972444
0.971229
0.971921
0.970501
0.971711
0.971322
0.972873
0.973021
0.974728
0.974716
0.97725
0.977214
0.978054
0.977537
0.976855
0.976987
0.979335
0.982712
0.986603
0.991059
1.01024
1.01463
1.05532
1.04446
0.957535
0.88955
0.994977
1.06359
1.09367
1.0561
1.04833
1.04913
1.03882
1.03426
1.02442
1.02053
1.01349
1.01289
1.00842
1.00991
1.00339
1.00421
1.00776
0.996419
1.0136
0.996338
0.995078
1.00957
1.00275
1.00228
1.00979
0.995168
0.996124
1.01378
0.996727
1.00781
1.00411
1.00344
1.00997
1.00879
1.01303
1.01332
1.02187
1.02514
1.03298
1.03886
1.04948
1.04987
1.0552
1.06937
1.05008
1.01253
0.990583
1.00177
1.07048
1.0538
1.04058
1.03628
1.0289
1.02998
1.02503
1.02736
1.02869
1.03074
1.03332
1.03484
1.03887
1.04147
1.04345
1.04562
1.04682
1.0469
1.04972
1.05165
1.054
1.05583
1.05741
1.05877
1.06167
1.06107
1.0628
1.06472
1.06519
1.06683
1.06745
1.06853
1.06892
1.07105
1.0711
1.0718
1.07367
1.0741
1.07516
1.07651
1.07763
1.07889
1.07975
1.08033
1.08133
1.08296
1.08316
1.08316
1.08313
1.08363
1.0821
1.08168
1.08084
1.07943
1.07842
1.07694
1.07579
1.07447
1.07294
1.07117
1.06921
1.06735
1.0649
1.06283
1.06037
1.05725
1.05423
1.05097
1.04774
1.04418
1.03997
1.03588
1.03143
1.02686
1.0218
1.01646
1.01117
1.00546
0.996891
0.988652
0.984672
0.980644
0.973463
0.965885
0.957812
0.949953
0.941832
0.933984
0.924545
0.916263
0.90773
0.90007
0.891536
0.885026
0.878107
0.872933
0.867486
0.866057
0.862956
0.868392
0.870351
0.869617
0.880708
0.881716
0.889687
0.895289
0.903303
0.909046
0.9173
0.921878
0.92906
0.935517
0.945901
0.947356
0.957547
0.958793
0.967421
0.971196
0.979918
0.983241
0.991422
0.995218
1.00275
1.0066
1.01548
1.01868
1.02817
1.03176
1.04134
1.04583
1.05522
1.06048
1.06999
1.07679
1.08613
1.09395
1.10342
1.11101
1.1216
1.13191
1.144
1.15394
1.16728
1.17927
1.19269
1.20739
1.22318
1.23977
1.25703
1.27512
1.29391
1.31175
1.32963
1.34606
1.36171
1.36773
1.3778
1.3566
1.33506
1.2875
1.22772
1.16007
1.08313
1.01425
0.957098
0.893709
0.840847
0.788925
0.749625
0.699456
0.681682
0.652256
0.641934
0.628775
0.619989
0.614209
0.612779
0.610823
0.611727
0.612943
0.613607
0.616427
0.619075
0.623321
0.624531
0.625717
0.626031
0.626389
0.626364
0.627424
0.62793
0.62966
0.630242
0.631388
0.631634
0.622455
0.619903
0.619195
0.619301
0.61948
0.619586
0.619995
0.620839
0.622671
0.623903
0.623226
0.61956
0.614264
0.610879
0.604936
0.604419
0.603212
0.603228
0.60344
0.603845
0.604315
0.604583
0.605109
0.605928
0.609014
0.614593
0.633075
0.689444
0.766019
0.783664
0.768288
0.775641
0.775969
0.780427
0.783166
0.788087
0.792652
0.798545
0.805888
0.814617
0.823039
0.831986
0.840471
0.849488
0.858115
0.867181
0.875695
0.884836
0.895371
0.905525
0.912303
0.919126
0.927682
0.936429
0.943005
0.948664
0.954463
0.959693
0.964405
0.967428
0.970477
0.971402
0.97086
0.972113
0.972717
0.973171
0.972675
0.972909
0.972487
0.972511
0.972618
0.971549
0.971403
0.972005
0.972249
0.972608
0.97294
0.972435
0.972091
0.97163
0.970945
0.970246
0.969738
0.97051
0.969891
0.969069
0.969478
0.969486
0.970303
0.97119
0.972434
0.972534
0.972148
0.970548
0.969733
0.969414
0.969078
0.970618
0.971388
0.97219
0.971991
0.972353
0.97036
0.971387
0.969766
0.971601
0.971292
0.973158
0.973471
0.975528
0.97631
0.97533
0.977474
0.972734
0.979651
0.975013
0.979977
0.982366
0.992494
1.00067
1.00855
1.04681
1.03205
0.9328
0.882035
0.986686
1.06325
1.09593
1.05682
1.04719
1.04782
1.03935
1.03348
1.0241
1.02084
1.01378
1.01311
1.00899
1.0096
1.00377
1.00409
1.0085
0.99698
1.01385
0.996988
0.995679
1.01003
1.00312
1.00339
1.01035
0.995642
0.996437
1.01392
0.99728
1.0082
1.00435
1.00364
1.00961
1.00916
1.01289
1.01394
1.0217
1.02513
1.03293
1.03962
1.0492
1.04979
1.05496
1.06866
1.0538
1.01315
0.98639
1.01331
1.06588
1.0511
1.04033
1.03721
1.0323
1.02831
1.03023
1.02957
1.03317
1.03215
1.03669
1.03607
1.04073
1.03999
1.04491
1.04524
1.04635
1.04706
1.05017
1.05227
1.0546
1.05606
1.0572
1.05851
1.06056
1.06045
1.06337
1.06452
1.06544
1.06618
1.06754
1.06761
1.06844
1.07037
1.07069
1.07217
1.07261
1.07455
1.07379
1.07669
1.07692
1.07876
1.07946
1.08002
1.0814
1.08254
1.08296
1.08287
1.083
1.08317
1.08198
1.08146
1.08056
1.07912
1.07813
1.07675
1.07555
1.07419
1.07273
1.07093
1.06906
1.06715
1.06469
1.06266
1.06022
1.05706
1.05409
1.05083
1.04759
1.04404
1.03985
1.03577
1.03133
1.02679
1.02178
1.01646
1.01115
1.00547
0.996918
0.988754
0.984813
0.980653
0.973463
0.965955
0.958003
0.950209
0.942164
0.93426
0.924979
0.916767
0.908314
0.900643
0.892307
0.885666
0.879013
0.873598
0.868592
0.866482
0.863828
0.869449
0.871211
0.870063
0.881629
0.882832
0.890301
0.896256
0.90405
0.90972
0.918123
0.922391
0.929908
0.936421
0.945934
0.94847
0.957558
0.959264
0.967761
0.971917
0.980687
0.984038
0.991951
0.99579
1.00359
1.00765
1.01592
1.01982
1.02896
1.03269
1.04223
1.04694
1.05534
1.06162
1.0704
1.07771
1.087
1.09442
1.104
1.11202
1.12249
1.13252
1.14426
1.15445
1.16758
1.17955
1.19283
1.20649
1.22238
1.23875
1.25629
1.27377
1.29177
1.30865
1.32671
1.34023
1.35527
1.36132
1.37072
1.34774
1.32785
1.27177
1.22032
1.14674
1.08105
1.00881
0.957786
0.894394
0.844291
0.79203
0.758123
0.705751
0.687328
0.657012
0.650169
0.634151
0.625484
0.61895
0.619135
0.61686
0.61582
0.616207
0.616586
0.619043
0.62128
0.625301
0.626566
0.627494
0.627736
0.628049
0.627955
0.628675
0.629212
0.630726
0.631433
0.632371
0.63305
0.624802
0.621148
0.620337
0.619759
0.619966
0.620109
0.620486
0.621495
0.623178
0.624367
0.624149
0.620222
0.61513
0.611695
0.605967
0.605405
0.603831
0.603521
0.603779
0.604365
0.604714
0.605176
0.605851
0.606391
0.609004
0.614647
0.632054
0.689004
0.768894
0.784899
0.768761
0.775751
0.776392
0.780644
0.783725
0.788391
0.79316
0.798949
0.806329
0.814965
0.823507
0.832371
0.840842
0.84976
0.858368
0.867387
0.875877
0.884925
0.89529
0.905489
0.912337
0.919242
0.927745
0.936348
0.942932
0.948599
0.954352
0.959533
0.96429
0.967311
0.970298
0.971253
0.97076
0.971972
0.972574
0.973044
0.972562
0.972875
0.972529
0.972442
0.972561
0.971698
0.971513
0.971687
0.972189
0.973046
0.973113
0.97266
0.971806
0.971502
0.970893
0.970646
0.969919
0.97001
0.970294
0.968309
0.969508
0.969272
0.969976
0.971335
0.971814
0.972693
0.971992
0.970837
0.968813
0.969609
0.969266
0.970653
0.970791
0.971768
0.970909
0.971498
0.969924
0.971391
0.969546
0.970993
0.971316
0.971473
0.972741
0.97302
0.973822
0.974385
0.975341
0.972829
0.975157
0.977895
0.978538
0.97665
0.985689
0.993389
1.00143
1.03785
1.02164
0.928688
0.895944
0.986387
1.06111
1.09554
1.05674
1.04798
1.04871
1.03882
1.03441
1.02426
1.02045
1.01352
1.01284
1.00843
1.0099
1.00339
1.00425
1.00773
0.99638
1.01356
0.99632
0.995126
1.00954
1.0028
1.00209
1.0098
0.995152
0.995759
1.01359
0.996738
1.00794
1.00424
1.00345
1.01001
1.00884
1.01305
1.01344
1.02186
1.02504
1.03265
1.03917
1.04917
1.04973
1.0549
1.06789
1.05476
1.02447
0.994352
1.03354
1.06124
1.04877
1.03971
1.03749
1.03376
1.03209
1.03023
1.03257
1.03382
1.03526
1.03779
1.0385
1.04024
1.04362
1.04434
1.04548
1.04483
1.04715
1.04877
1.05364
1.05292
1.05593
1.05757
1.05852
1.0602
1.06027
1.06273
1.06374
1.06389
1.06592
1.06661
1.0677
1.06874
1.06876
1.07071
1.07118
1.07232
1.07349
1.07384
1.0762
1.07619
1.07872
1.07854
1.08033
1.08106
1.08174
1.08297
1.08254
1.08291
1.08275
1.08167
1.08115
1.08022
1.07888
1.07774
1.07653
1.07535
1.07388
1.07254
1.07076
1.06882
1.06697
1.06447
1.06245
1.05994
1.05686
1.05385
1.05063
1.04744
1.04387
1.03973
1.03566
1.03122
1.02669
1.02167
1.01639
1.01115
1.00536
0.996958
0.989154
0.985107
0.980704
0.973619
0.966279
0.958346
0.950516
0.942521
0.934636
0.925417
0.917245
0.908967
0.901285
0.893067
0.886389
0.879815
0.874313
0.869694
0.867341
0.864935
0.870178
0.871982
0.871525
0.88212
0.883247
0.891257
0.896625
0.904698
0.910034
0.918404
0.922981
0.93014
0.93645
0.946938
0.94838
0.958543
0.96007
0.968577