/*--------------------------------*- C++ -*----------------------------------*\
| =========                 |                                                 |
| \\      /  F ield         | OpenFOAM: The Open Source CFD Toolbox           |
|  \\    /   O peration     | Version:  v2006                                 |
|   \\  /    A nd           | Website:  www.openfoam.com                      |
|    \\/     M anipulation  |                                                 |
\*---------------------------------------------------------------------------*/
FoamFile
{
    version     2.0;
    format      ascii;
    class       volScalarField;
    location    "50";
    object      rho;
}
// * * * * * * * * * * * * * * * * * * * * * * * * * * * * * * * * * * * * * //

dimensions      [1 -3 0 0 0 0 0];


internalField   nonuniform List<scalar> 
93840
(
1.00232
1.00728
0.996849
0.997294
1.01013
0.998131
1.00658
1.00303
1.0021
1.00764
1.00524
1.00939
1.00933
1.01598
1.01747
1.02415
1.02753
1.03439
1.03435
1.03927
1.05992
1.04379
0.982199
0.940249
0.957621
1.03027
1.01694
0.981858
0.990075
0.971235
0.954842
0.966973
0.96115
0.972937
0.978798
0.98188
0.987946
0.989668
0.994091
0.996037
0.999761
1.00119
1.00209
1.00471
1.00469
1.00751
1.00846
1.01033
1.01032
1.01348
1.01195
1.01523
1.01474
1.01665
1.01705
1.01721
1.01845
1.01843
1.01927
1.0206
1.01984
1.02176
1.02178
1.02296
1.02273
1.02352
1.02492
1.0246
1.02464
1.02577
1.02567
1.02631
1.02543
1.02559
1.0252
1.02417
1.02338
1.02294
1.02102
1.02017
1.01859
1.01766
1.01593
1.01467
1.01276
1.01113
1.00913
1.00712
1.0051
1.00296
1.00022
0.997499
0.994664
0.991858
0.98875
0.985238
0.981678
0.978056
0.974116
0.969902
0.965402
0.961034
0.956515
0.949315
0.942146
0.939171
0.936265
0.930305
0.923748
0.917286
0.910945
0.904541
0.898467
0.891121
0.884679
0.878228
0.872664
0.866204
0.861567
0.856697
0.853746
0.849895
0.849891
0.848121
0.85355
0.856542
0.856837
0.86736
0.868881
0.87596
0.881625
0.888812
0.894119
0.901213
0.905352
0.91191
0.918054
0.926424
0.928862
0.937041
0.938676
0.946285
0.950168
0.957692
0.960546
0.967347
0.970785
0.976904
0.980663
0.987842
0.991113
0.998802
1.002
1.01011
1.01391
1.02132
1.02589
1.03323
1.03881
1.04675
1.05268
1.06008
1.06492
1.07298
1.08082
1.09063
1.09789
1.10763
1.11508
1.12452
1.13515
1.14713
1.15885
1.17019
1.18199
1.19577
1.21123
1.23042
1.24926
1.26891
1.2812
1.29576
1.27857
1.24255
1.15231
1.07179
0.961506
0.895793
0.858842
0.849572
0.785447
0.741622
0.714426
0.699713
0.661149
0.660784
0.646388
0.646369
0.639924
0.638511
0.639484
0.639935
0.640601
0.640324
0.640505
0.641699
0.644259
0.646519
0.648919
0.649317
0.648639
0.648455
0.647664
0.647151
0.647289
0.647792
0.647709
0.647934
0.646977
0.646196
0.637538
0.635784
0.634912
0.634421
0.633255
0.633277
0.632392
0.632469
0.632632
0.633369
0.630733
0.627208
0.621993
0.619682
0.61433
0.614369
0.612154
0.611689
0.61041
0.610402
0.609196
0.609538
0.609032
0.609368
0.611562
0.616376
0.631956
0.669187
0.71922
0.737529
0.731949
0.739624
0.741199
0.745729
0.748946
0.753394
0.757411
0.762299
0.76837
0.775252
0.78215
0.789381
0.796355
0.803598
0.810744
0.817995
0.824871
0.832109
0.841052
0.849478
0.855098
0.860479
0.8679
0.875347
0.881143
0.886012
0.891505
0.896918
0.90176
0.907219
0.909013
0.924187
0.922934
0.924092
0.925195
0.927593
0.928884
0.928494
0.927037
0.927523
0.928522
0.92872
0.928566
0.928553
0.929671
0.932777
0.936646
0.943207
0.951383
0.955768
0.956247
0.955273
0.953504
0.949943
0.943127
0.938171
0.935052
0.933071
0.93031
0.928307
0.929508
0.929894
0.926834
0.924345
0.925431
0.920125
0.920191
0.918531
0.913296
0.917064
0.915823
0.91575
0.915409
0.915611
0.915807
0.915043
0.91422
0.914537
0.914682
0.913668
0.913311
0.915531
0.918573
0.914255
0.917386
0.907465
0.901567
0.919735
0.930999
0.987218
0.994505
1.03772
1.02233
0.969583
0.942581
0.981341
1.03853
1.06015
1.03893
1.03498
1.03498
1.02741
1.02386
1.01707
1.01449
1.00942
1.00887
1.00657
1.00616
1.00298
1.00317
1.00542
0.997314
1.0098
0.996999
0.996501
1.0069
1.00178
1.00181
1.00692
0.996443
0.99713
1.00983
0.997237
1.00485
1.00348
1.00328
1.0058
1.00629
1.00871
1.00929
1.01464
1.01727
1.02425
1.02734
1.03501
1.03481
1.03913
1.05824
1.0452
0.998568
0.954706
0.971955
1.01426
1.01305
0.980642
0.977541
0.960089
0.963328
0.959199
0.971588
0.970413
0.979001
0.979087
0.98572
0.987559
0.990796
0.992708
0.997537
0.996873
0.999546
1
1.00129
1.00353
1.0043
1.00662
1.00621
1.00882
1.00847
1.01051
1.01146
1.01191
1.01205
1.01346
1.01371
1.01354
1.01547
1.01504
1.01497
1.01725
1.01755
1.01771
1.01806
1.01862
1.02039
1.02005
1.02011
1.02072
1.02157
1.02166
1.02117
1.02113
1.02111
1.01993
1.01943
1.01883
1.01729
1.01659
1.01507
1.01416
1.01281
1.01156
1.00993
1.0084
1.0067
1.00489
1.00308
1.00127
0.998772
0.996417
0.993904
0.991383
0.988678
0.985492
0.982291
0.979042
0.975457
0.971679
0.967574
0.963617
0.959554
0.953026
0.946497
0.943672
0.941038
0.935704
0.929797
0.923985
0.918246
0.912494
0.907053
0.900469
0.894724
0.888943
0.884012
0.878293
0.87423
0.869957
0.86742
0.864123
0.864289
0.862856
0.868082
0.871184
0.871451
0.881528
0.883284
0.890054
0.895544
0.902482
0.907622
0.914602
0.918689
0.924957
0.930871
0.939126
0.941412
0.949458
0.951134
0.958397
0.962184
0.969434
0.972305
0.978863
0.982254
0.988174
0.991822
0.998745
1.00179
1.00923
1.0122
1.01987
1.02344
1.03053
1.03458
1.04156
1.04646
1.05375
1.05927
1.06616
1.07043
1.07771
1.08483
1.09364
1.09992
1.1087
1.11577
1.12473
1.13484
1.14597
1.15659
1.16768
1.18
1.19342
1.20822
1.22395
1.24034
1.25541
1.26364
1.27744
1.2591
1.23786
1.18026
1.11918
1.03941
0.970344
0.920073
0.893355
0.840368
0.798852
0.765155
0.743677
0.704727
0.703065
0.689294
0.686722
0.678346
0.677867
0.677784
0.677531
0.677393
0.677008
0.676394
0.677201
0.678561
0.680282
0.681757
0.681366
0.679859
0.679186
0.67762
0.67653
0.67574
0.675892
0.675075
0.67493
0.67358
0.672485
0.663195
0.661148
0.659671
0.658902
0.657454
0.657258
0.655674
0.655605
0.655157
0.655725
0.652709
0.649031
0.643438
0.64115
0.635262
0.63524
0.632899
0.63247
0.630462
0.63048
0.628769
0.629366
0.62801
0.628633
0.629976
0.634892
0.650045
0.684888
0.732052
0.747833
0.741807
0.749031
0.750227
0.754364
0.757328
0.761513
0.765258
0.769823
0.775444
0.781817
0.788182
0.794852
0.801241
0.807931
0.814483
0.821173
0.82749
0.834235
0.842363
0.850053
0.855075
0.860116
0.866698
0.873461
0.878238
0.882843
0.886826
0.892023
0.894482
0.899944
0.899645
0.907005
0.91029
0.912423
0.913712
0.915266
0.917337
0.918235
0.916846
0.916503
0.917394
0.917661
0.917212
0.917122
0.918375
0.921612
0.925836
0.933872
0.94412
0.949932
0.951007
0.950505
0.947474
0.943095
0.935919
0.930557
0.927414
0.925173
0.923054
0.921149
0.921697
0.920686
0.917674
0.915302
0.914827
0.911173
0.909712
0.909619
0.90722
0.906885
0.906962
0.907528
0.906992
0.907691
0.908313
0.908518
0.908895
0.909618
0.910937
0.909603
0.910066
0.913542
0.914564
0.911367
0.920326
0.906732
0.918829
0.908292
0.930968
0.969889
0.973901
1.01058
1.01392
0.942735
0.930362
0.980013
1.03593
1.05939
1.03905
1.03418
1.03472
1.0274
1.02407
1.01703
1.01555
1.00945
1.00908
1.00569
1.00776
1.00215
1.00268
1.00647
0.998048
1.01003
0.997308
0.996947
1.00725
1.00237
1.00232
1.0073
0.996708
0.997424
1.00998
0.998111
1.00658
1.0031
1.00174
1.0075
1.00588
1.00936
1.00956
1.01602
1.01752
1.02377
1.02751
1.03496
1.03464
1.03899
1.05658
1.04453
1.00373
0.967136
0.988774
1.01127
1.02078
0.990859
0.981816
0.97218
0.964219
0.972194
0.969122
0.973563
0.97783
0.979134
0.985117
0.984672
0.990405
0.991279
0.993877
0.9952
0.996657
0.998437
0.998829
1.00209
1.00157
1.00509
1.00394
1.00639
1.00641
1.00755
1.00907
1.00899
1.00987
1.01123
1.01105
1.01182
1.0125
1.01261
1.01323
1.0149
1.01506
1.01559
1.01562
1.01655
1.01809
1.01789
1.01811
1.0188
1.01961
1.01991
1.01937
1.01947
1.01954
1.01844
1.01802
1.01752
1.01628
1.01541
1.01429
1.01349
1.01216
1.01111
1.00972
1.00833
1.00687
1.00528
1.00364
1.00216
0.999825
0.997772
0.995539
0.993234
0.990867
0.987911
0.985014
0.98208
0.978775
0.975367
0.971562
0.967975
0.964258
0.958095
0.952021
0.949499
0.947216
0.942276
0.936833
0.931536
0.926225
0.920977
0.915942
0.909857
0.904519
0.899129
0.894567
0.889181
0.885392
0.881308
0.878926
0.875665
0.875835
0.874431
0.879663
0.882645
0.882559
0.892715
0.894178
0.900695
0.906094
0.91276
0.917792
0.924576
0.928388
0.934513
0.940202
0.948259
0.950451
0.95825
0.959658
0.966865
0.970413
0.977473
0.980166
0.986483
0.989629
0.995275
0.998623
1.00506
1.00796
1.01495
1.01762
1.02501
1.02843
1.03501
1.03917
1.04554
1.05067
1.05746
1.06267
1.06925
1.07377
1.08093
1.08771
1.09634
1.10305
1.11208
1.11933
1.12843
1.13853
1.14959
1.16109
1.17252
1.18453
1.19745
1.21223
1.22952
1.24689
1.26423
1.27294
1.28879
1.26797
1.24127
1.18535
1.12605
1.0408
0.976072
0.92358
0.90136
0.845111
0.803373
0.771295
0.751934
0.711721
0.708348
0.69428
0.692988
0.686202
0.686043
0.686547
0.68707
0.688008
0.689444
0.690203
0.69214
0.695159
0.698138
0.700446
0.70117
0.699845
0.699921
0.698629
0.697786
0.697012
0.69736
0.696543
0.696382
0.694944
0.694054
0.684262
0.681983
0.680255
0.67977
0.677624
0.67747
0.675908
0.675929
0.675122
0.675626
0.671997
0.668572
0.66242
0.659872
0.653732
0.653801
0.650635
0.650473
0.648153
0.648544
0.646317
0.647091
0.644822
0.646388
0.645528
0.653252
0.663699
0.696713
0.748841
0.762341
0.754955
0.760888
0.761447
0.764929
0.767463
0.771176
0.774562
0.778711
0.783905
0.789842
0.795766
0.801995
0.807873
0.814115
0.820163
0.826444
0.832228
0.838557
0.84601
0.853335
0.857804
0.862608
0.8684
0.874881
0.878812
0.883364
0.886356
0.891297
0.892935
0.897388
0.89786
0.900954
0.903884
0.906973
0.909041
0.910712
0.912381
0.914227
0.91386
0.913588
0.914386
0.914441
0.914583
0.9139
0.914811
0.917939
0.921797
0.92997
0.940572
0.947352
0.948817
0.948389
0.94522
0.940495
0.933405
0.92776
0.925019
0.922434
0.92049
0.918741
0.918721
0.917132
0.914468
0.910993
0.90984
0.907341
0.906816
0.907338
0.907498
0.907793
0.907971
0.908173
0.906866
0.908437
0.908229
0.909723
0.910011
0.911522
0.912214
0.912553
0.912774
0.915327
0.915015
0.918098
0.917361
0.909888
0.913959
0.915395
0.928592
0.951402
0.957037
0.999203
1.01659
0.952366
0.925571
0.981738
1.0351
1.0616
1.03937
1.03406
1.03481
1.0273
1.02509
1.01723
1.01497
1.00972
1.00926
1.00657
1.00581
1.00337
1.00304
1.00507
0.997386
1.00984
0.996861
0.996583
1.00687
1.00185
1.00183
1.00694
0.996354
0.997166
1.00984
0.997401
1.00515
1.00337
1.00302
1.00618
1.00669
1.00829
1.00962
1.01501
1.01737
1.02372
1.02734
1.03517
1.03506
1.03855
1.05467
1.04273
1.00859
0.974557
0.986689
1.02649
1.01734
0.993406
0.986652
0.973501
0.975532
0.972924
0.974703
0.975255
0.979873
0.982626
0.984846
0.986476
0.989284
0.991526
0.995269
0.99438
0.997299
0.997562
1.00016
0.999988
1.00251
1.00295
1.00326
1.00638
1.0065
1.00633
1.00842
1.00961
1.0089
1.01024
1.01033
1.01076
1.01262
1.01159
1.01255
1.01361
1.01479
1.01457
1.01555
1.01569
1.01779
1.01733
1.01753
1.01859
1.01905
1.01964
1.01928
1.01928
1.01949
1.01845
1.01801
1.01787
1.01658
1.01568
1.01486
1.01403
1.0129
1.01194
1.01085
1.00942
1.00827
1.00679
1.00527
1.00403
1.00182
0.999998
0.997969
0.995815
0.993711
0.990907
0.988252
0.985539
0.98244
0.979306
0.975732
0.972427
0.968905
0.963127
0.9575
0.955082
0.953006
0.948393
0.943346
0.938372
0.93334
0.928418
0.92364
0.917852
0.91273
0.90754
0.90312
0.897927
0.894163
0.890176
0.887655
0.884556
0.884444
0.88311
0.887931
0.89081
0.890592
0.900361
0.901766
0.908276
0.91332
0.919881
0.92477
0.931454
0.935249
0.941104
0.946557
0.954542
0.956307
0.964051
0.965245
0.972002
0.975259
0.981938
0.984419
0.990353
0.993117
0.998413
1.00146
1.00775
1.01014
1.01685
1.01915
1.02602
1.0292
1.03574
1.03939
1.04614
1.05068
1.05695
1.06202
1.0687
1.07382
1.08095
1.08785
1.09634
1.10291
1.11168
1.1197
1.12906
1.13988
1.15073
1.16165
1.17292
1.18565
1.19907
1.21322
1.22823
1.24445
1.25475
1.26475
1.27668
1.26481
1.24782
1.19726
1.14413
1.07546
1.01157
0.958016
0.923063
0.871535
0.830858
0.795521
0.767883
0.727179
0.723911
0.705863
0.703568
0.695346
0.693746
0.6914
0.692975
0.694174
0.69519
0.695685
0.697614
0.701321
0.70461
0.707268
0.708855
0.709067
0.710131
0.710015
0.71049
0.710195
0.711249
0.710933
0.711238
0.710457
0.710174
0.700043
0.697956
0.695977
0.695397
0.69314
0.693192
0.691344
0.691548
0.690501
0.691072
0.687565
0.68387
0.677337
0.674996
0.66806
0.668119
0.665202
0.664885
0.662065
0.662638
0.660109
0.661269
0.658459
0.66027
0.658649
0.667219
0.675741
0.708427
0.763185
0.775379
0.76701
0.772359
0.772202
0.7751
0.777029
0.780411
0.783413
0.787253
0.792052
0.797668
0.803163
0.809073
0.814532
0.820448
0.826073
0.832055
0.837444
0.843507
0.850379
0.857332
0.86139
0.866079
0.871256
0.877465
0.880827
0.885194
0.887719
0.892041
0.893523
0.896462
0.897803
0.898491
0.899968
0.902743
0.9054
0.907386
0.908779
0.910907
0.911752
0.911961
0.912584
0.91307
0.913025
0.912346
0.912873
0.915886
0.919368
0.926524
0.937432
0.944906
0.946988
0.946387
0.943396
0.939116
0.93218
0.926685
0.923701
0.921088
0.919263
0.917284
0.916911
0.915379
0.91231
0.908475
0.90746
0.905549
0.90548
0.906804
0.907454
0.907958
0.908354
0.909055
0.908199
0.909444
0.909342
0.910593
0.910467
0.911462
0.912218
0.912432
0.913636
0.913555
0.915524
0.913516
0.918316
0.909536
0.916157
0.913189
0.933094
0.95083
0.947327
0.99072
1.00436
0.930439
0.906334
0.982091
1.03992
1.06248
1.04029
1.0332
1.03434
1.02765
1.02481
1.0167
1.01517
1.00949
1.00887
1.0054
1.00789
1.00185
1.00299
1.00631
0.998128
1.01004
0.997281
0.996962
1.00723
1.00229
1.00234
1.00733
0.996676
0.997632
1.0101
0.998218
1.00627
1.0029
1.00203
1.00736
1.00588
1.00947
1.00922
1.0159
1.01761
1.02381
1.02792
1.03498
1.03484
1.03807
1.05316
1.03968
1.01057
0.985136
0.991175
1.02959
1.0212
1.00032
0.993517
0.984274
0.982058
0.979981
0.9788
0.981985
0.98457
0.985679
0.987974
0.989797
0.993237
0.994585
0.997496
0.997118
1.00008
1.0001
1.00033
1.00173
1.00517
1.00366
1.00573
1.00783
1.00704
1.00809
1.00998
1.01008
1.00949
1.01102
1.01144
1.01248
1.01309
1.01254
1.01383
1.01437
1.01521
1.0152
1.01631
1.0164
1.01864
1.01769
1.01879
1.01914
1.01989
1.02044
1.02043
1.01999
1.02066
1.01949
1.01919
1.01914
1.01772
1.01709
1.01645
1.01552
1.0146
1.01383
1.01289
1.01145
1.01059
1.00918
1.00775
1.00677
1.00458
1.003
1.00111
0.999059
0.997211
0.99449
0.992076
0.989579
0.986647
0.983781
0.980385
0.977323
0.973976
0.968435
0.963096
0.960877
0.95901
0.954566
0.949811
0.945104
0.940252
0.93556
0.930858
0.925261
0.920186
0.915057
0.910661
0.905398
0.901635
0.89748
0.894925
0.891493
0.89136
0.889856
0.894717
0.897282
0.896677
0.906622
0.907621
0.913844
0.918841
0.925144
0.929861
0.936347
0.939783
0.945565
0.95079
0.958377
0.960215
0.967382
0.968339
0.974998
0.977982
0.984456
0.986735
0.992513
0.995263
1.00052
1.00343
1.00931
1.01191
1.01847
1.02093
1.02786
1.03089
1.037
1.04117
1.04693
1.0519
1.05868
1.06409
1.07043
1.07511
1.08207
1.08916
1.0979
1.1049
1.11419
1.12168
1.13059
1.14084
1.15139
1.16267
1.17401
1.18661
1.19923
1.21393
1.22826
1.24375
1.25638
1.26406
1.27489
1.25636
1.23829
1.19047
1.14074
1.07014
1.01277
0.956771
0.926052
0.873547
0.832821
0.797351
0.775726
0.733184
0.726364
0.707768
0.705906
0.696261
0.695662
0.693874
0.695087
0.694156
0.695143
0.695804
0.697946
0.700833
0.70416
0.706974
0.708937
0.709686
0.710469
0.710614
0.711364
0.711986
0.713289
0.714199
0.715654
0.715163
0.716399
0.70777
0.705708
0.70451
0.705134
0.703836
0.704236
0.702762
0.703502
0.702708
0.703579
0.699975
0.696698
0.690228
0.687667
0.680782
0.680456
0.677512
0.677316
0.674716
0.674901
0.672787
0.673262
0.671209
0.671748
0.672024
0.676813
0.687222
0.720528
0.775874
0.789566
0.779879
0.784255
0.783637
0.78586
0.787405
0.79024
0.792948
0.796403
0.800866
0.806114
0.811272
0.816854
0.821931
0.827491
0.832715
0.83841
0.84338
0.849126
0.855447
0.86214
0.865841
0.870374
0.87506
0.880928
0.883963
0.887921
0.890325
0.893815
0.8955
0.897049
0.898523
0.898198
0.898024
0.899804
0.901801
0.904048
0.905305
0.907619
0.909422
0.91036
0.911194
0.911765
0.912049
0.911276
0.911286
0.914727
0.917906
0.922779
0.933014
0.941931
0.944651
0.944363
0.942127
0.938046
0.931527
0.925859
0.922981
0.920332
0.918636
0.916452
0.915749
0.914087
0.911061
0.907473
0.906727
0.905063
0.904849
0.906538
0.907917
0.908673
0.908368
0.909447
0.908246
0.909762
0.909228
0.910701
0.910456
0.911905
0.912188
0.914195
0.914619
0.914304
0.915084
0.915873
0.91566
0.911373
0.913076
0.917009
0.927619
0.951087
0.95498
0.998292
1.00414
0.922433
0.89597
0.980502
1.04293
1.06285
1.03786
1.03384
1.03485
1.02753
1.0243
1.01696
1.01475
1.00978
1.00929
1.00642
1.00613
1.00314
1.00308
1.00529
0.997361
1.00977
0.996871
0.99657
1.00686
1.00185
1.00176
1.00696
0.996322
0.997039
1.0099
0.997612
1.00553
1.00347
1.00291
1.00612
1.0064
1.00811
1.00951
1.01547
1.01753
1.02345
1.02764
1.03509
1.03488
1.03783
1.05237
1.03684
1.00978
0.986947
0.993922
1.05302
1.02248
1.0052
1.00054
0.991417
0.990443
0.985913
0.989723
0.986867
0.992252
0.989128
0.995697
0.992837
0.998516
0.997925
1.00207
0.999258
1.00257
1.00303
1.00376
1.00439
1.00768
1.00693
1.00831
1.01173
1.0105
1.01026
1.01215
1.01108
1.01252
1.0138
1.01441
1.01456
1.01493
1.01504
1.01529
1.01605
1.01753
1.01673
1.0192
1.01828
1.02002
1.01978
1.02082
1.02076
1.02153
1.02319
1.02204
1.0221
1.0228
1.02152
1.02135
1.02161
1.01975
1.01947
1.01901
1.01805
1.01725
1.01677
1.01573
1.01438
1.01382
1.01226
1.01102
1.01018
1.00797
1.00666
1.00484
1.00291
1.00129
0.998619
0.996471
0.994101
0.991324
0.988672
0.985444
0.982609
0.979331
0.974145
0.969161
0.966956
0.965174
0.960881
0.956397
0.951755
0.946983
0.94238
0.937682
0.932106
0.926961
0.921793
0.917266
0.911969
0.907994
0.90379
0.900866
0.897533
0.896943
0.89543
0.899722
0.902089
0.901462
0.910679
0.911528
0.917836
0.922202
0.928387
0.932785
0.939018
0.942342
0.947787
0.952517
0.960197
0.961277
0.968676
0.969281
0.975688
0.978376
0.984779
0.987023
0.992829
0.995456
1.00069
1.00343
1.0097
1.01183
1.0185
1.02092
1.0279
1.03096
1.03754
1.04106
1.048
1.05263
1.05918
1.06471
1.07139
1.07627
1.08371
1.09097
1.09929
1.10581
1.11467
1.12268
1.13191
1.14263
1.15296
1.16488
1.17608
1.18942
1.20157
1.21578
1.22765
1.24122
1.2531
1.25692
1.26965
1.25554
1.24403
1.20105
1.15634
1.09909
1.03997
0.98842
0.948063
0.900264
0.858411
0.821047
0.792013
0.753352
0.741279
0.722594
0.716473
0.707436
0.701594
0.698997
0.699767
0.700589
0.699116
0.700401
0.702442
0.705156
0.70735
0.710792
0.712587
0.713688
0.713911
0.713945
0.714254
0.715504
0.715932
0.717362
0.718176
0.71862
0.719275
0.711149
0.710154
0.709241
0.709695
0.708486
0.709902
0.709276
0.710628
0.710575
0.711896
0.709427
0.706398
0.700225
0.697845
0.69114
0.69091
0.688034
0.687387
0.685514
0.685585
0.684002
0.683783
0.682799
0.682207
0.68361
0.687444
0.697576
0.731878
0.788418
0.80294
0.792489
0.796313
0.795384
0.797424
0.798318
0.800848
0.803132
0.80633
0.810386
0.815395
0.820095
0.825404
0.830098
0.835378
0.840193
0.845634
0.850267
0.855762
0.861587
0.867846
0.871229
0.875551
0.879814
0.885229
0.888092
0.891512
0.8939
0.896576
0.898377
0.899048
0.900123
0.899358
0.898168
0.898871
0.899688
0.901234
0.902328
0.903995
0.905544
0.908013
0.909196
0.910186
0.911266
0.910491
0.910233
0.914448
0.918761
0.921897
0.931634
0.939936
0.943282
0.942651
0.940982
0.937654
0.931324
0.925352
0.922496
0.920064
0.918475
0.916388
0.915276
0.913682
0.911101
0.906828
0.906671
0.906297
0.905783
0.907022
0.907938
0.90878
0.908903
0.909728
0.908702
0.910168
0.909059
0.910617
0.910415
0.912069
0.91286
0.915046
0.916262
0.914805
0.916065
0.912502
0.91714
0.906744
0.914894
0.913883
0.927977
0.94574
0.956444
0.998908
0.997249
0.911419
0.882751
0.97806
1.04172
1.06256
1.03814
1.03164
1.03372
1.02804
1.02358
1.01633
1.01501
1.00963
1.00897
1.0057
1.00767
1.00223
1.00267
1.00642
0.997988
1.01007
0.997257
0.996997
1.00722
1.00227
1.00239
1.00737
0.996659
0.997653
1.01006
0.998405
1.00585
1.00321
1.00182
1.00787
1.00604
1.00948
1.00964
1.01528
1.0177
1.02339
1.02837
1.03498
1.03478
1.03781
1.05178
1.03504
1.00841
0.990753
0.993982
1.05117
1.03108
1.01414
1.00783
1.00088
0.997906
0.996372
0.996361
0.996915
0.996797
0.9975
0.999293
1.00089
1.0021
1.00354
1.0041
1.00417
1.00765
1.00641
1.00893
1.00943
1.01217
1.01299
1.01256
1.0157
1.01339
1.01338
1.0154
1.01447
1.01723
1.01824
1.01659
1.01799
1.01721
1.01872
1.01817
1.01985
1.02096
1.02015
1.02196
1.02103
1.02252
1.02369
1.02326
1.02417
1.02498
1.02617
1.02463
1.02532
1.02608
1.02437
1.02497
1.02461
1.02282
1.02314
1.02235
1.02149
1.021
1.02028
1.01944
1.01813
1.01773
1.01597
1.0151
1.01422
1.01201
1.011
1.00909
1.00732
1.00592
1.0032
1.00137
0.999098
0.996453
0.994025
0.990905
0.988222
0.985032
0.980033
0.975198
0.973114
0.971395
0.967101
0.962798
0.958207
0.953467
0.9489
0.94407
0.938496
0.933173
0.92793
0.923127
0.917458
0.913309
0.908648
0.905513
0.901492
0.900744
0.898852
0.903019
0.904943
0.903711
0.912977
0.913445
0.919276
0.923644
0.929635
0.933767
0.939901
0.942866
0.948443
0.953064
0.960326
0.961911
0.968845
0.969642
0.976107
0.978751
0.985332
0.987498
0.993341
0.996097
1.00143
1.00416
1.01001
1.01273
1.01915
1.02165
1.02855
1.03185
1.03794
1.04236
1.04854
1.05385
1.05981
1.06508
1.07177
1.07733
1.08384
1.09107
1.09902
1.10651
1.11512
1.12373
1.13215
1.14339
1.15305
1.16509
1.17534
1.18938
1.20012
1.21442
1.22731
1.23878
1.24983
1.2546
1.26494
1.24798
1.23139
1.18976
1.14985
1.08874
1.03811
0.983705
0.949877
0.899712
0.859829
0.822886
0.797532
0.757127
0.743849
0.723722
0.71945
0.707542
0.704134
0.701307
0.700587
0.701698
0.700752
0.701165
0.701733
0.704657
0.707583
0.710355
0.71222
0.712477
0.713177
0.713358
0.713642
0.714548
0.715402
0.716477
0.717467
0.717901
0.718915
0.710956
0.708608
0.708686
0.708966
0.708563
0.709183
0.709165
0.710283
0.71137
0.71285
0.711515
0.708806
0.704085
0.701932
0.696425
0.696151
0.69487
0.694207
0.693478
0.693429
0.69271
0.692441
0.692011
0.69143
0.693189
0.696666
0.707201
0.742361
0.801367
0.815451
0.804588
0.807965
0.80716
0.808798
0.809593
0.811667
0.813824
0.81672
0.820582
0.825274
0.829696
0.834726
0.839133
0.84407
0.848507
0.853656
0.857917
0.863062
0.868385
0.874317
0.877439
0.881493
0.88549
0.890363
0.893118
0.89602
0.898284
0.900332
0.902009
0.902273
0.902834
0.901495
0.899753
0.899247
0.899335
0.899484
0.899875
0.901294
0.902011
0.904007
0.905602
0.90738
0.90952
0.910182
0.910616
0.917079
0.926564
0.926096
0.927301
0.934878
0.940338
0.940677
0.939576
0.936884
0.930964
0.924705
0.922321
0.919985
0.918689
0.916779
0.915523
0.913306
0.911669
0.907445
0.905047
0.905769
0.905419
0.906369
0.907195
0.908063
0.907873
0.908944
0.908444
0.909457
0.909231
0.91024
0.910406
0.91206
0.912986
0.915557
0.916088
0.916593
0.91589
0.914641
0.913209
0.911007
0.911011
0.91645
0.920508
0.938073
0.951839
0.997734
0.988265
0.900944
0.867813
0.974728
1.03944
1.06551
1.03511
1.03231
1.03457
1.02756
1.02493
1.01748
1.01388
1.00992
1.00948
1.00656
1.00608
1.00345
1.00306
1.00535
0.997265
1.00976
0.996932
0.99654
1.00683
1.00194
1.0016
1.00698
0.996281
0.997247
1.00991
0.997713
1.00542
1.00335
1.00302
1.00635
1.00597
1.00827
1.00981
1.01523
1.0177
1.02343
1.02791
1.0351
1.03481
1.03769
1.05111
1.03677
1.00534
0.989798
1.00118
1.05187
1.0344
1.0215
1.01612
1.00807
1.00777
1.00264
1.00198
1.00296
1.00262
1.00461
1.00452
1.00721
1.00874
1.01019
1.01085
1.01164
1.01163
1.01273
1.01472
1.01582
1.01677
1.01654
1.01753
1.018
1.01749
1.01736
1.01952
1.01948
1.0215
1.02185
1.02096
1.02114
1.02224
1.02292
1.02232
1.02429
1.02476
1.02347
1.02571
1.02451
1.02661
1.02751
1.02698
1.02816
1.02937
1.02919
1.02878
1.02925
1.02986
1.02858
1.02936
1.02795
1.02705
1.02763
1.02641
1.02566
1.02537
1.02437
1.02395
1.02264
1.02211
1.02042
1.0199
1.01877
1.01679
1.01598
1.01397
1.0125
1.01126
1.0085
1.00703
1.00475
1.00224
0.999976
0.996985
0.994455
0.991299
0.986649
0.982068
0.979963
0.978213
0.973914
0.969702
0.96483
0.959842
0.954857
0.949543
0.943418
0.937441
0.931664
0.926384
0.920194
0.915826
0.910649
0.90731
0.902502
0.902415
0.899153
0.905
0.904717
0.906074
0.912415
0.914898
0.919039
0.924792
0.929095
0.935023
0.939473
0.944324
0.948038
0.954121
0.960132
0.962711
0.968707
0.971085
0.975829
0.980058
0.9846
0.988559
0.992938
0.997086
1.00106
1.00541
1.00999
1.01396
1.01899
1.0231
1.02839
1.03298
1.03805
1.04335
1.04816
1.05467
1.05956
1.0667
1.07155
1.07855
1.0841
1.09317
1.09988
1.10848
1.11572
1.12579
1.13308
1.14481
1.15381
1.16672
1.17656
1.18999
1.20132
1.21376
1.22507
1.23644
1.24649
1.24978
1.25837
1.24367
1.23004
1.1983
1.15836
1.11336
1.06113
1.01139
0.971106
0.92392
0.885478
0.845453
0.81587
0.775975
0.762927
0.73794
0.730825
0.719104
0.71249
0.706696
0.706854
0.703858
0.705744
0.70611
0.707057
0.708742
0.711574
0.71418
0.715734
0.716087
0.716963
0.716726
0.717158
0.717431
0.718387
0.719354
0.72019
0.720375
0.721192
0.713121
0.711694
0.710608
0.711132
0.710786
0.711233
0.71115
0.712201
0.713185
0.714683
0.7136
0.711138
0.70633
0.703998
0.698601
0.698638
0.697233
0.697735
0.697219
0.698189
0.697643
0.698432
0.697803
0.698845
0.699975
0.704092
0.715432
0.752346
0.813815
0.827028
0.815402
0.819244
0.818369
0.820281
0.820835
0.822954
0.824973
0.827915
0.831493
0.836265
0.840305
0.84508
0.849195
0.853873
0.857919
0.862746
0.866724
0.87154
0.87644
0.881792
0.884697
0.888342
0.892043
0.896382
0.899029
0.901492
0.903617
0.905077
0.906553
0.906198
0.906645
0.904837
0.902493
0.901779
0.900322
0.900412
0.898629
0.899999
0.89972
0.900662
0.902566
0.902451
0.905664
0.90776
0.908973
0.912147
0.926737
0.939108
0.929089
0.933393
0.937231
0.938749
0.939315
0.937733
0.93184
0.925662
0.92239
0.920352
0.919076
0.917637
0.9164
0.913589
0.91193
0.908859
0.905947
0.904955
0.904734
0.905169
0.905672
0.906441
0.907012
0.90818
0.90771
0.908894
0.907968
0.909266
0.909215
0.911216
0.912624
0.915013
0.916147
0.915516
0.916967
0.912954
0.915849
0.910105
0.909594
0.913157
0.920899
0.930699
0.946429
0.989788
0.979763
0.880527
0.857121
0.966765
1.04512
1.07227
1.03726
1.03131
1.03383
1.0272
1.02405
1.01665
1.01452
1.00975
1.00884
1.00535
1.00763
1.0022
1.00294
1.00681
0.997937
1.00998
0.997443
0.997025
1.00718
1.00224
1.00243
1.00741
0.996682
0.997635
1.01011
0.998332
1.00595
1.0027
1.00231
1.00777
1.00598
1.0094
1.00971
1.01499
1.01768
1.02326
1.0285
1.03492
1.03483
1.03766
1.05042
1.03935
1.00599
0.98748
1.01029
1.04841
1.03561
1.02635
1.02278
1.01761
1.01342
1.01319
1.01106
1.01337
1.01165
1.01417
1.01299
1.01596
1.01474
1.01818
1.01808
1.01805
1.01804
1.01927
1.02074
1.02198
1.02239
1.02162
1.02219
1.02304
1.02303
1.02462
1.02565
1.02616
1.02663
1.0269
1.0259
1.02635
1.0277
1.02778
1.02813
1.02898
1.02896
1.02776
1.03026
1.02911
1.0318
1.03205
1.03198
1.03352
1.03339
1.03372
1.0334
1.03405
1.03477
1.0338
1.03387
1.03234
1.03228
1.03295
1.03123
1.0306
1.03039
1.02984
1.02966
1.02812
1.02763
1.02648
1.026
1.0249
1.02351
1.02275
1.02079
1.01977
1.01847
1.01563
1.0147
1.0123
1.00981
1.00756
1.00456
1.00187
0.99851
0.993628
0.98847
0.985999
0.983593
0.978669
0.973956
0.968175
0.962781
0.95725
0.951621
0.944887
0.939071
0.933016
0.927539
0.92139
0.91668
0.911719
0.907994
0.903736
0.902897
0.900074
0.905684
0.905407
0.906196
0.91328
0.915673
0.919708
0.925506
0.929726
0.935327
0.940101
0.944628
0.948813
0.955017
0.960379
0.963474
0.968765
0.971302
0.97601
0.980619
0.98539
0.989071
0.993453
0.997429
1.0015
1.0059
1.01022
1.01451
1.0196
1.02347
1.02902
1.03367
1.03822
1.04414
1.04896
1.0554
1.06063
1.06699
1.07235
1.07944
1.08567
1.09363
1.10062
1.10839
1.11629
1.12558
1.13399
1.14418
1.15432
1.16622
1.1775
1.18924
1.20083
1.21235
1.2234
1.23276
1.24236
1.2457
1.25383
1.23715
1.22608
1.1876
1.15403
1.10244
1.05658
1.00487
0.968872
0.922006
0.885503
0.844419
0.819792
0.778039
0.764674
0.73959
0.734577
0.720194
0.714201
0.708366
0.709091
0.706616
0.706441
0.705715
0.706864
0.708
0.710665
0.713159
0.714796
0.715047
0.715703
0.715383
0.716097
0.71614
0.717165
0.717922
0.719055
0.719284
0.720333
0.713199
0.710899
0.709688
0.709488
0.709491
0.709487
0.710069
0.7112
0.712038
0.713336
0.713726
0.710081
0.706066
0.702912
0.698724
0.697869
0.697009
0.696342
0.697062
0.697102
0.69798
0.697814
0.698861
0.698743
0.701245
0.705848
0.718393
0.758263
0.822695
0.835407
0.823622
0.828025
0.828142
0.830446
0.832055
0.834337
0.836942
0.840331
0.844282
0.849147
0.853756
0.858295
0.862145
0.866381
0.869926
0.874195
0.877526
0.881665
0.885747
0.890453
0.893119
0.896342
0.899756
0.903425
0.90592
0.907864
0.909983
0.910891
0.912047
0.911523
0.911079
0.909331
0.90605
0.905161
0.903004
0.901703
0.900623
0.898911
0.900048
0.898381
0.900228
0.900644
0.899928
0.905605
0.901931
0.913183
0.901942
0.934001
0.940283
0.934619
0.938942
0.940773
0.939047
0.938806
0.935197
0.928077
0.923968
0.920894
0.919574
0.918767
0.917444
0.915416
0.911505
0.909668
0.906947
0.90596
0.905069
0.905227
0.905095
0.90578
0.905798
0.907046
0.906838
0.90841
0.907518
0.908692
0.909284
0.910331
0.912585
0.913921
0.915165
0.915659
0.916364
0.914126
0.913443
0.914602
0.911551
0.910791
0.917148
0.925717
0.940212
0.981367
0.972984
0.879722
0.861656
0.96263
1.0471
1.07291
1.03503
1.03178
1.03425
1.02781
1.02477
1.01711
1.01411
1.00953
1.00901
1.0064
1.00606
1.00314
1.00276
1.00539
0.997093
1.00973
0.997016
0.996621
1.0068
1.00196
1.00145
1.00696
0.996274
0.997093
1.00976
0.997618
1.00564
1.00354
1.00278
1.00634
1.00654
1.00866
1.00992
1.01524
1.01764
1.02294
1.02815
1.0349
1.03488
1.03774
1.04968
1.03995
1.0143
0.993228
1.02452
1.04464
1.03452
1.02814
1.02671
1.02349
1.02129
1.01905
1.01993
1.02032
1.02026
1.02169
1.02196
1.02313
1.02432
1.02468
1.02458
1.02404
1.02447
1.02601
1.02967
1.02838
1.02945
1.02977
1.02991
1.03082
1.03103
1.03256
1.03269
1.03169
1.03352
1.03366
1.03399
1.03315
1.03344
1.0352
1.03401
1.03499
1.0351
1.03445
1.03659
1.03627
1.03913
1.03837
1.03946
1.03967
1.03911
1.04076
1.04044
1.04151
1.04187
1.04054
1.04058
1.03999
1.04018
1.0407
1.03865
1.03873
1.0388
1.03837
1.03776
1.03642
1.03668
1.03576
1.03476
1.03361
1.03227
1.03111
1.02947
1.02833
1.02615
1.02364
1.0224
1.0187
1.01616
1.01352
1.00946
1.00616
1.00218
0.99627
0.990955
0.988332
0.985194
0.980039
0.975003
0.969371
0.963706
0.957973
0.952254
0.945509
0.939596