/*--------------------------------*- C++ -*----------------------------------*\
| =========                 |                                                 |
| \\      /  F ield         | OpenFOAM: The Open Source CFD Toolbox           |
|  \\    /   O peration     | Version:  v2006                                 |
|   \\  /    A nd           | Website:  www.openfoam.com                      |
|    \\/     M anipulation  |                                                 |
\*---------------------------------------------------------------------------*/
FoamFile
{
    version     2.0;
    format      ascii;
    class       volScalarField;
    location    "50";
    object      T;
}
// * * * * * * * * * * * * * * * * * * * * * * * * * * * * * * * * * * * * * //

dimensions      [0 0 0 1 0 0 0];


internalField   nonuniform List<scalar> 
93840
(
1.00089
1.0029
0.998825
0.999371
1.00378
0.999061
1.00158
1.00117
1.00164
1.00195
1.00374
1.00344
1.00445
1.00572
1.00751
1.00936
1.01108
1.01319
1.01541
1.01928
1.01962
1.01501
1.005
1.00964
1.0442
1.03954
1.05471
1.04388
1.03532
1.02481
1.01677
1.03305
1.03164
1.03473
1.03808
1.03908
1.04164
1.04139
1.04415
1.04313
1.04625
1.04483
1.04719
1.04581
1.04748
1.04706
1.04902
1.04817
1.04898
1.04928
1.04981
1.05004
1.05014
1.04998
1.05157
1.05094
1.05089
1.0518
1.05182
1.05138
1.05275
1.05235
1.05307
1.05329
1.05358
1.05401
1.05478
1.0547
1.05535
1.05562
1.05642
1.05653
1.05693
1.05712
1.0576
1.05746
1.05778
1.05798
1.05801
1.05789
1.0583
1.05808
1.05833
1.05828
1.05834
1.05824
1.05835
1.05811
1.05824
1.05807
1.05785
1.05759
1.05727
1.05699
1.05666
1.05604
1.05565
1.055
1.05452
1.05377
1.05302
1.05233
1.0516
1.04979
1.04772
1.04733
1.04745
1.04609
1.04458
1.04286
1.04121
1.03938
1.03759
1.03514
1.03275
1.03029
1.02795
1.02501
1.02249
1.01974
1.01746
1.01456
1.01289
1.01051
1.01068
1.01049
1.00822
1.0109
1.00977
1.01048
1.01121
1.01215
1.01278
1.01379
1.01388
1.01458
1.01558
1.01731
1.01684
1.01841
1.01765
1.0188
1.01901
1.02026
1.02016
1.02106
1.02122
1.02184
1.022
1.02299
1.02307
1.02432
1.02432
1.02575
1.02611
1.02712
1.02774
1.02907
1.03014
1.03149
1.03254
1.03379
1.03465
1.03617
1.03765
1.03966
1.04124
1.04361
1.04561
1.04789
1.05078
1.05405
1.05791
1.06182
1.06567
1.06998
1.07564
1.08247
1.08843
1.09505
1.09898
1.10396
1.09905
1.08077
1.0622
1.02322
0.991126
0.962634
0.956122
0.954457
0.930605
0.912527
0.906307
0.902121
0.889001
0.893987
0.892474
0.897792
0.899184
0.902372
0.907943
0.912001
0.916311
0.919453
0.923592
0.926945
0.931748
0.935334
0.939865
0.942274
0.945024
0.946963
0.950055
0.951889
0.955035
0.957018
0.960255
0.961463
0.964076
0.965101
0.963429
0.964325
0.967251
0.968497
0.970683
0.971882
0.974454
0.975622
0.978707
0.979762
0.98076
0.979214
0.979408
0.978642
0.978898
0.979684
0.981732
0.981893
0.984132
0.984392
0.986368
0.987036
0.988853
0.989853
0.99209
0.996899
1.00515
1.02859
1.05375
1.05512
1.04692
1.04667
1.04411
1.04373
1.04307
1.04347
1.0438
1.04482
1.04635
1.04834
1.05007
1.05202
1.05359
1.05544
1.05698
1.05878
1.06003
1.06181
1.06397
1.06606
1.06644
1.06732
1.06864
1.07016
1.07053
1.07083
1.07087
1.07038
1.06997
1.06684
1.06822
1.05153
1.05189
1.05185
1.05134
1.04911
1.04726
1.04782
1.0489
1.0488
1.04739
1.04606
1.04652
1.04671
1.04579
1.04303
1.03856
1.03085
1.02169
1.01628
1.01542
1.01597
1.0168
1.02176
1.02829
1.03322
1.03624
1.03928
1.04392
1.04628
1.04612
1.04599
1.0488
1.04842
1.04725
1.05432
1.05522
1.05832
1.06434
1.06004
1.06064
1.06146
1.06028
1.06195
1.0629
1.06456
1.06496
1.06664
1.06763
1.06735
1.06764
1.06915
1.07085
1.06729
1.07201
1.06627
1.06567
1.05783
1.03631
1.04092
1.03144
1.04823
1.05053
1.03735
1.01094
1.00568
1.01343
1.01971
1.01957
1.01555
1.01346
1.01098
1.00974
1.00739
1.00668
1.00385
1.00397
1.00199
1.00375
1.00053
1.00101
1.00237
0.999262
1.00375
0.999319
0.998749
1.00279
1.00077
1.00076
1.0028
0.99881
0.999207
1.00376
0.999391
1.00294
1.00069
1.00021
1.00414
1.00233
1.00415
1.00397
1.00681
1.0074
1.00922
1.01108
1.01347
1.0153
1.01896
1.0192
1.01523
1.00905
1.00328
1.03553
1.05149
1.05411
1.05092
1.04455
1.04165
1.03219
1.03643
1.03582
1.03954
1.04089
1.04227
1.04417
1.04466
1.04665
1.04626
1.04945
1.04818
1.05045
1.04932
1.05102
1.05081
1.05269
1.05185
1.05265
1.05308
1.05427
1.05355
1.05491
1.05428
1.05591
1.05511
1.05535
1.0564
1.0561
1.05609
1.05741
1.05672
1.05815
1.05769
1.05837
1.05861
1.05944
1.05957
1.05993
1.06008
1.06116
1.0609
1.06146
1.06143
1.06194
1.06162
1.06193
1.06194
1.06182
1.0617
1.06186
1.06144
1.06169
1.06137
1.06129
1.06098
1.06088
1.06037
1.06028
1.05978
1.05927
1.05869
1.05801
1.05742
1.05669
1.05573
1.05495
1.0539
1.05304
1.05182
1.05066
1.04948
1.04818
1.04579
1.04322
1.0425
1.04208
1.04007
1.03793
1.03549
1.03316
1.03057
1.02803
1.02473
1.02158
1.01834
1.01524
1.01151
1.00837
1.00496
1.00217
0.998785
0.996965
0.994357
0.994719
0.994358
0.992335
0.995322
0.994133
0.99535
0.996202
0.99752
0.998331
0.999628
0.999941
1.00098
1.00222
1.00417
1.00383
1.00564
1.00502
1.00648
1.00684
1.00836
1.0084
1.00961
1.00995
1.01091
1.01128
1.01269
1.01302
1.01469
1.015
1.01689
1.01758
1.01917
1.02028
1.02225
1.02375
1.02577
1.02761
1.02979
1.03156
1.03393
1.03644
1.03954
1.04215
1.04551
1.0486
1.05204
1.05615
1.0603
1.06437
1.06867
1.07362
1.07895
1.0844
1.08971
1.09496
1.10063
1.10417
1.10594
1.10156
1.09177
1.07829
1.04752
1.01752
0.986646
0.966343
0.954033
0.930895
0.910927
0.896269
0.88617
0.868304
0.868467
0.863019
0.863262
0.862081
0.863482
0.867195
0.869978
0.873627
0.876185
0.88048
0.884108
0.889237
0.893043
0.898236
0.901143
0.904878
0.90714
0.91091
0.913158
0.916965
0.919178
0.923174
0.924812
0.927884
0.929302
0.928296
0.928921
0.932155
0.933539
0.936429
0.9376
0.940615
0.941968
0.945678
0.947128
0.948849
0.947311
0.947868
0.946983
0.947401
0.947847
0.95055
0.950608
0.95337
0.953462
0.956315
0.956739
0.959596
0.960159
0.963729
0.968268
0.977675
1.00565
1.036
1.04073
1.03301
1.03404
1.03189
1.03204
1.03177
1.03265
1.03345
1.035
1.03716
1.03986
1.04232
1.04505
1.04742
1.05001
1.05233
1.05487
1.05693
1.05939
1.06241
1.0653
1.06655
1.06797
1.07024
1.07246
1.07405
1.0747
1.07654
1.07623
1.07863
1.07544
1.07936
1.07141
1.06654
1.06535
1.06472
1.06323
1.06045
1.05948
1.06066
1.06135
1.06004
1.05877
1.05909
1.05975
1.05875
1.05568
1.05073
1.04097
1.02965
1.02249
1.02066
1.02146
1.02312
1.02898
1.03632
1.04172
1.04489
1.04817
1.05227
1.05465
1.05511
1.05629
1.05909
1.05891
1.05952
1.06466
1.06731
1.06874
1.07126
1.07171
1.07089
1.07075
1.07064
1.07143
1.07189
1.07222
1.07217
1.07256
1.07297
1.07221
1.07192
1.07328
1.07311
1.07171
1.07273
1.06721
1.06406
1.05999
1.05506
1.05534
1.05003
1.06094
1.0626
1.06096
1.01946
1.00937
1.01343
1.02027
1.01998
1.01572
1.01335
1.01118
1.00956
1.00779
1.00588
1.00438
1.00376
1.00329
1.00185
1.00161
1.00148
1.0018
0.999093
1.00377
0.999516
0.99881
1.00289
1.00091
1.00086
1.00292
0.998887
0.999091
1.00377
0.99911
1.0016
1.00118
1.00203
1.00213
1.00316
1.00349
1.00421
1.00574
1.00783
1.00946
1.01088
1.0135
1.01513
1.0185
1.01847
1.01508
1.01022
1.00186
1.01863
1.05636
1.04927
1.04477
1.04183
1.03907
1.03962
1.03964
1.0408
1.0413
1.04483
1.04309
1.04776
1.04512
1.05068
1.04787
1.05169
1.05046
1.05259
1.05185
1.05359
1.0526
1.055
1.05387
1.05593
1.05554
1.05608
1.05613
1.05747
1.05635
1.05818
1.05748
1.05797
1.0588
1.05833
1.05886
1.05943
1.05922
1.06052
1.05988
1.06057
1.0609
1.06141
1.06179
1.06183
1.06218
1.06291
1.06285
1.06315
1.06312
1.06348
1.06309
1.06329
1.06316
1.06286
1.06272
1.06261
1.06216
1.06222
1.06176
1.06143
1.06099
1.06066
1.05987
1.05962
1.05879
1.05807
1.05719
1.05622
1.0554
1.0543
1.05309
1.052
1.05061
1.04944
1.04783
1.04634
1.04474
1.04305
1.04027
1.03726
1.03619
1.03528
1.03282
1.03019
1.0272
1.02439
1.02124
1.0182
1.01436
1.01077
1.00709
1.00358
0.999484
0.996104
0.992461
0.989558
0.986075
0.984373
0.981787
0.982439
0.982108
0.980405
0.983493
0.982559
0.984028
0.985036
0.986663
0.987628
0.989224
0.989697
0.991029
0.992467
0.994652
0.99457
0.996657
0.996247
0.998087
0.998652
1.00059
1.00083
1.00246
1.00301
1.00437
1.00499
1.0068
1.00745
1.00951
1.01012
1.01253
1.01347
1.01548
1.01693
1.01903
1.02085
1.02329
1.02515
1.02737
1.02909
1.03171
1.03433
1.03767
1.04018
1.04357
1.04608
1.04938
1.05313
1.05729
1.06132
1.06566
1.06993
1.07492
1.08
1.08692
1.09177
1.09885
1.10058
1.10302
1.09936
1.08955
1.07098
1.0424
1.01457
0.986667
0.96863
0.95803
0.934536
0.914251
0.901345
0.892522
0.872784
0.872008
0.865727
0.863318
0.861585
0.860535
0.862097
0.862221
0.864288
0.864139
0.866082
0.867686
0.870856
0.872525
0.876331
0.877893
0.880838
0.8821
0.885074
0.886618
0.890287
0.891984
0.895872
0.897402
0.900285
0.901637
0.900804
0.901303
0.904518
0.905747
0.908768
0.909698
0.913031
0.914324
0.918327
0.919783
0.921908
0.920622
0.921479
0.920499
0.921323
0.921556
0.924338
0.924263
0.927684
0.927466
0.93122
0.930694
0.935127
0.934086
0.940636
0.941143
0.957315
0.988309
1.01385
1.02176
1.01536
1.01798
1.01683
1.01793
1.01841
1.0199
1.02128
1.0234
1.02618
1.02949
1.03259
1.0359
1.03898
1.04216
1.04516
1.04825
1.05101
1.05401
1.05784
1.06118
1.06318
1.06495
1.06815
1.07067
1.07332
1.07408
1.07711
1.07711
1.08051
1.07849
1.08147
1.07852
1.07401
1.07173
1.06994
1.06859
1.06619
1.06427
1.06408
1.06465
1.06367
1.06222
1.06264
1.06343
1.06291
1.05992
1.05535
1.04569
1.03331
1.02525
1.02279
1.02367
1.02572
1.03165
1.03905
1.0444
1.04782
1.05106
1.05502
1.05762
1.05859
1.06005
1.06312
1.0639
1.06541
1.0688
1.0703
1.07047
1.07087
1.07099
1.07056
1.07056
1.07008
1.07086
1.0706
1.07094
1.07056
1.0706
1.07069
1.07053
1.07037
1.07125
1.07107
1.07238
1.07151
1.06824
1.06642
1.06225
1.06226
1.07451
1.07238
1.08544
1.0473
1.05774
1.02103
1.01243
1.01387
1.02101
1.02026
1.01569
1.01351
1.01141
1.00874
1.00711
1.00596
1.00355
1.00361
1.00191
1.00408
1.00008
1.00123
1.00272
0.999141
1.00383
0.999419
0.998685
1.00277
1.00076
1.00078
1.0028
0.998841
0.999015
1.00381
0.999238
1.00267
1.00074
1.00038
1.00376
1.00194
1.00456
1.0036
1.00643
1.00744
1.00941
1.01088
1.01359
1.01515
1.0181
1.01794
1.01444
1.01097
1.00567
1.01971
1.0421
1.04669
1.03983
1.04202
1.03971
1.03921
1.04004
1.04001
1.04291
1.04386
1.04447
1.04521
1.04771
1.04877
1.04889
1.05129
1.0511
1.05149
1.05221
1.05283
1.05352
1.05433
1.05486
1.05562
1.05602
1.05577
1.05737
1.05732
1.05654
1.05843
1.05859
1.05797
1.05936
1.05867
1.05953
1.05926
1.0601
1.06076
1.06028
1.06127
1.06117
1.06178
1.06231
1.06198
1.06247
1.06307
1.06324
1.06311
1.06331
1.06341
1.063
1.06313
1.06284
1.06243
1.06232
1.06189
1.06149
1.06138
1.06079
1.06022
1.05974
1.05914
1.05818
1.05782
1.05671
1.05588
1.05476
1.05357
1.0526
1.05122
1.04986
1.04852
1.04688
1.04549
1.04359
1.04186
1.03994
1.03798
1.03492
1.03163
1.0303
1.02898
1.02622
1.02326
1.01991
1.0168
1.0133
1.00999
1.00584
1.00208
0.998205
0.994526
0.99034
0.98695
0.983307
0.980457
0.977096
0.97562
0.973147
0.974002
0.97373
0.972485
0.975505
0.974861
0.976557
0.977737
0.979571
0.980726
0.982532
0.983286
0.984822
0.986428
0.988824
0.988904
0.991235
0.991179
0.993174
0.994088
0.996264
0.996899
0.998881
0.999857
1.00165
1.0027
1.00501
1.00593
1.00841
1.00939
1.01211
1.01336
1.01581
1.01723
1.01961
1.02144
1.02428
1.02667
1.02919
1.03079
1.03339
1.03629
1.03957
1.04189
1.04524
1.04798
1.05135
1.05511
1.05943
1.06338
1.06785
1.07253
1.07765
1.08219
1.08847
1.09248
1.09766
1.10072
1.10129
1.09812
1.09108
1.07573
1.05371
1.02863
1.00243
0.981442
0.967
0.944361
0.925935
0.909449
0.897319
0.88039
0.875546
0.867904
0.864959
0.862998
0.860574
0.861416
0.860948
0.862254
0.861722
0.863867
0.863943
0.866125
0.86725
0.870444
0.870845
0.872386
0.87169
0.873229
0.873235
0.876052
0.876462
0.87946
0.879946
0.882637
0.882994
0.882331
0.882399
0.885422
0.886237
0.889428
0.890199
0.893466
0.894532
0.898564
0.899902
0.902376
0.900911
0.902052
0.901079
0.90204
0.902144
0.905242
0.905005
0.908473
0.908219
0.912298
0.911597
0.916432
0.915054
0.922468
0.92158
0.940246
0.972442
0.99617
1.00505
0.999454
1.00325
1.00304
1.00493
1.0061
1.00817
1.01007
1.01267
1.01594
1.01972
1.02335
1.02709
1.03072
1.03436
1.03789
1.04138
1.04472
1.04812
1.05255
1.05625
1.05883
1.06084
1.06473
1.0675
1.07084
1.07186
1.07545
1.07617
1.07972
1.07954
1.08153
1.08142
1.07885
1.07684
1.07446
1.07259
1.07035
1.06798
1.06658
1.06651
1.06556
1.06412
1.06412
1.06523
1.06517
1.06219
1.05814
1.04938
1.03675
1.02774
1.02497
1.0258
1.02767
1.03325
1.04047
1.04589
1.04924
1.05238
1.05624
1.05915
1.06061
1.06209
1.06568
1.06709
1.06838
1.07112
1.07198
1.0714
1.07088
1.0707
1.07006
1.0699
1.0694
1.06997
1.06986
1.07028
1.06993
1.06995
1.06991
1.06953
1.06966
1.06935
1.07018
1.07052
1.07329
1.07215
1.07297
1.0707
1.07082
1.08074
1.07681
1.07857
1.05218
1.05698
1.02057
1.01462
1.01613
1.0215
1.02024
1.01555
1.01347
1.01131
1.00891
1.00765
1.00609
1.00429
1.00394
1.00356
1.00177
1.00186
1.00113
1.002
0.998953
1.00382
0.99949
0.998743
1.00286
1.00087
1.00088
1.00293
0.998933
0.999059
1.00374
0.999018
1.00201
1.00146
1.00173
1.00222
1.00321
1.00334
1.00453
1.00584
1.00775
1.00913
1.01095
1.0136
1.01499
1.01774
1.01754
1.01337
1.01029
1.00419
1.01079
1.03301
1.0409
1.03632
1.03861
1.03755
1.03651
1.0373
1.03887
1.04113
1.04051
1.0422
1.04321
1.04514
1.04727
1.04655
1.04841
1.0479
1.04994
1.04999
1.05147
1.05219
1.05215
1.05266
1.05534
1.05372
1.05393
1.05625
1.05465
1.05584
1.05782
1.05722
1.05718
1.05747
1.05769
1.05823
1.05871
1.05929
1.05934
1.05977
1.06013
1.06
1.06122
1.06134
1.06093
1.06144
1.0625
1.06209
1.06182
1.06247
1.06206
1.0618
1.06188
1.06124
1.06105
1.06082
1.06009
1.05979
1.05949
1.05875
1.05794
1.05753
1.05657
1.0556
1.05512
1.05373
1.05289
1.0515
1.05018
1.04909
1.04744
1.046
1.0444
1.04255
1.04098
1.03882
1.0369
1.03471
1.03255
1.02925
1.02572
1.02418
1.02252
1.01958
1.01635
1.01278
1.0095
1.00578
1.00236
0.998069
0.994315
0.990401
0.986741
0.982631
0.979386
0.97587
0.973202
0.970031
0.968802
0.966533
0.967733
0.967588
0.966549
0.969717
0.969389
0.971144
0.972573
0.974575
0.975884
0.977946
0.97882
0.98061
0.982438
0.98499
0.985447
0.988008
0.988268
0.990637
0.99181
0.994327
0.995127
0.997375
0.998435
1.00048
1.00155
1.00379
1.00477
1.00738
1.00834
1.01123
1.01257
1.01502
1.01669
1.01925
1.02128
1.02363
1.02547
1.02812
1.03006
1.03277
1.03532
1.03851
1.04094
1.04426
1.04681
1.05038
1.05402
1.05852
1.0625
1.06713
1.07134
1.07633
1.08055
1.08738
1.09083
1.0966
1.09888
1.09997
1.09658
1.08747
1.07229
1.05243
1.02732
1.00336
0.983712
0.969258
0.948839
0.930147
0.915418
0.904394
0.886034
0.880716
0.873951
0.870592
0.867676
0.86651
0.865947
0.864865
0.867227
0.866171
0.867693
0.866998
0.869767
0.87047
0.8732
0.873122
0.874071
0.873522
0.874372
0.87391
0.875405
0.875212
0.876855
0.876127
0.877498
0.876603
0.874821
0.87316
0.875135
0.874611
0.877205
0.876948
0.879612
0.880039
0.883692
0.884542
0.886842
0.885383
0.886418
0.885316
0.886102
0.886132
0.888967
0.888978
0.892206
0.892238
0.895846
0.895767
0.899455
0.899866
0.904451
0.908281
0.92393
0.956471
0.980492
0.988529
0.983521
0.988169
0.98876
0.991389
0.993251
0.995872
0.998279
1.00132
1.00508
1.0093
1.01342
1.01755
1.02168
1.02574
1.02977
1.03362
1.0375
1.04126
1.04627
1.05031
1.05341
1.05567
1.06011
1.06323
1.067
1.06854
1.07227
1.07398
1.0773
1.0788
1.08052
1.0817
1.08098
1.08029
1.07856
1.07646
1.07441
1.07195
1.06938
1.06832
1.06737
1.06568
1.06516
1.06653
1.06703
1.0636
1.05992
1.05392
1.04178
1.03143
1.02742
1.02774
1.02945
1.03412
1.04113
1.04678
1.05027
1.05315
1.05676
1.05989
1.06195
1.06326
1.06724
1.06893
1.06895
1.07125
1.07198
1.07103
1.07042
1.07028
1.06935
1.06937
1.06849
1.06915
1.06887
1.0695
1.06921
1.06941
1.06894
1.06912
1.06874
1.06846
1.06937
1.07058
1.07286
1.07508
1.07556
1.074
1.07097
1.07491
1.07075
1.06841
1.05931
1.05687
1.02354
1.017
1.01829
1.02399
1.02059
1.01526
1.01383
1.01101
1.00961
1.00743
1.00601
1.00356
1.00362
1.00206
1.00377
1.00021
1.00117
1.00248
0.999112
1.00377
0.999445
0.99863
1.00273
1.00077
1.00074
1.0028
0.998885
0.998887
1.00381
0.999071
1.00235
1.00065
1.00052
1.00384
1.00233
1.00484
1.00375
1.00623
1.00751
1.00946
1.01085
1.01373
1.01484
1.01739
1.01732
1.01248
1.00969
1.00334
1.00714
1.02518
1.03371
1.0326
1.03339
1.03199
1.03249
1.0345
1.03533
1.03632
1.03654
1.03792
1.03892
1.0414
1.04321
1.04239
1.04504
1.04485
1.0461
1.04693
1.04742
1.04936
1.04747
1.05138
1.05043
1.04998
1.05072
1.05308
1.05192
1.05437
1.05487
1.05328
1.05461
1.05395
1.05583
1.05586
1.05624
1.05725
1.05652
1.05757
1.05758
1.05784
1.05947
1.05866
1.05864
1.05977
1.06018
1.05946
1.05973
1.06049
1.05943
1.05968
1.05938
1.0587
1.05882
1.05804
1.05731
1.05715
1.05644
1.05569
1.05478
1.05443
1.05306
1.05228
1.05157
1.04999
1.04922
1.04753
1.04617
1.04498
1.04307
1.04161
1.03974
1.03773
1.036
1.03362
1.03155
1.02913
1.02681
1.02329
1.01965
1.01795
1.01601
1.01298
1.00958
1.00592
1.0026
0.998791
0.995396
0.991102
0.987499
0.983671
0.980134
0.976246
0.973215
0.969923
0.967461
0.964634
0.963706
0.961644
0.963105
0.963092
0.9626
0.965676
0.965744
0.967777
0.969472
0.971695
0.973421
0.975744
0.977093
0.979077
0.9812
0.984043
0.984615
0.987486
0.988038
0.990399
0.991748
0.994189
0.995218
0.997522
0.998712
1.00081
1.00204
1.00446
1.00554
1.00822
1.00921
1.01176
1.01316
1.01575
1.01724
1.01954
1.02138
1.02386
1.02591
1.02829
1.03041
1.03304
1.03577
1.03888
1.0414
1.04499
1.04805
1.0514
1.0549
1.05954
1.06307
1.06771
1.07161
1.07745
1.08054
1.08741
1.09074
1.09603
1.09792
1.09839
1.09469
1.08862
1.07494
1.05792
1.03695
1.01365
0.99219
0.977313
0.956119
0.939763
0.921541
0.909446
0.88983
0.88609
0.874965
0.873656
0.867052
0.866254
0.864
0.865698
0.864105
0.865151
0.865231
0.866048
0.867136
0.870122
0.870187
0.871851
0.871525
0.871847
0.872708
0.872718
0.872881
0.873941
0.874695
0.874304
0.875652
0.874715
0.871973
0.870605
0.871083
0.870527
0.871694
0.870763
0.872592
0.872084
0.874868
0.874825
0.876473
0.874468
0.874755
0.873436
0.873572
0.873825
0.875738
0.876032
0.878552
0.87938
0.88191
0.882721
0.885002
0.886672
0.889705
0.894366
0.909409
0.942131
0.966142
0.973334
0.968377
0.973286
0.974507
0.977676
0.980076
0.983171
0.986008
0.989431
0.993615
0.998217
1.00282
1.00729
1.01187
1.01632
1.02084
1.02502
1.02939
1.03351
1.03902
1.04343
1.04698
1.04956
1.0544
1.058
1.06199
1.06421
1.06792
1.0706
1.07375
1.07627
1.07851
1.08029
1.08102
1.08152
1.08119
1.07995
1.07797
1.07625
1.07387
1.07117
1.06956
1.06751
1.0662
1.06741
1.06832
1.06379
1.05877
1.05459
1.04362
1.03352
1.02956
1.0292
1.03069
1.03475
1.04139
1.04734
1.05095
1.05354
1.05675
1.05996
1.0626
1.06406
1.06722
1.06981
1.0692
1.06972
1.07073
1.07066
1.07028
1.07001
1.0694
1.06925
1.06833
1.06889
1.06834
1.06907
1.06889
1.06907
1.0684
1.06841
1.06814
1.06765
1.0687
1.06857
1.07304
1.07548
1.07883
1.07517
1.07562
1.07658
1.06559
1.06066
1.06012
1.06446
1.02563
1.01921
1.02131
1.02719
1.02239
1.0162
1.01361
1.01122
1.00994
1.00772
1.00601
1.00419
1.00397
1.00326
1.00201
1.00159
1.00141
1.00175
0.999036
1.00382
0.999481
0.998709
1.00283
1.00087
1.0009
1.00292
0.998946
0.998856
1.00375
0.998863
1.00214
1.00118
1.00187
1.00167
1.00305
1.00335
1.00427
1.0064
1.00754
1.00945
1.01085
1.0137
1.01469
1.01714
1.01736
1.01184
1.00822
1.00094
0.995994
1.02361
1.02568
1.02582
1.026
1.02688
1.02805
1.02852
1.03024
1.03098
1.03232
1.03406
1.03586
1.03704
1.03848
1.03864
1.03992
1.04054
1.04175
1.04291
1.0432
1.04324
1.04422
1.04526
1.04534
1.04595
1.04709
1.04895
1.04947
1.04997
1.05023
1.04908
1.05057
1.05122
1.05257
1.05196
1.05267
1.0537
1.05213
1.05439
1.05369
1.05528
1.05604
1.05485
1.05588
1.0565
1.05623
1.05616
1.057
1.05674
1.05618
1.05649
1.05558
1.05531
1.05545
1.0541
1.05364
1.05342
1.05242
1.05183
1.05091
1.05033
1.04887
1.04833
1.0472
1.04568
1.0449
1.04292
1.04165
1.04028
1.03816
1.03674
1.03456
1.03246
1.03061
1.02804
1.02585
1.02325
1.02085
1.01714
1.01342
1.01162
1.00949
1.00645
1.00292
0.999311
0.995994
0.992212
0.988909
0.984709
0.981369
0.977658
0.974478
0.970957
0.9683
0.965398
0.963375
0.960988
0.960523
0.958882
0.960811
0.961035
0.960827
0.964305
0.964791
0.966851
0.968888
0.971121
0.973013
0.975535
0.97693
0.979004
0.981299
0.983928
0.984854
0.987354
0.988087
0.990449
0.99201
0.994339
0.995432
0.997587
0.998669
1.00087
1.00218
1.00451
1.0055
1.00815
1.00907
1.01183
1.01304
1.01537
1.01704
1.01942
1.02118
1.02405
1.02603
1.02866
1.03019
1.0332
1.03567
1.03941
1.04163
1.04536
1.04741
1.05176
1.05407
1.05913
1.06229
1.06792
1.07078
1.07686
1.07972
1.08598
1.08914
1.0939
1.09597
1.09668
1.09292
1.08561
1.07189
1.05615
1.03609
1.01381
0.994536
0.979666
0.959927
0.942695
0.925542
0.914724
0.897326
0.889835
0.878902
0.878497
0.873808
0.870954
0.86948
0.871126
0.868482
0.869422
0.868901
0.870775
0.870304
0.873005
0.874103
0.874447
0.875826
0.875007
0.8756
0.87552
0.875922
0.87609
0.87718
0.876714
0.877534
0.877403
0.874621
0.872463
0.873057
0.872448
0.872908
0.872548
0.873321
0.873167
0.874532
0.874425
0.874731
0.872498
0.871319
0.869543
0.867896
0.867667
0.868159
0.868105
0.869208
0.870069
0.871368
0.87249
0.873655
0.875514
0.877871
0.882308
0.896186
0.92863
0.952944
0.959626
0.954465
0.959382
0.960874
0.964254
0.966985
0.970364
0.973526
0.977215
0.981689
0.986593
0.99163
0.996377
1.00131
1.0061
1.01106
1.01557
1.02037
1.02485
1.03081
1.03565
1.0396
1.04258
1.04768
1.05182
1.05595
1.05881
1.06262
1.06603
1.06933
1.07236
1.07509
1.0776
1.07893
1.08092
1.0815
1.08187
1.08081
1.07951
1.07806
1.0759
1.07373
1.07103
1.06798
1.06789
1.06762
1.06084
1.04989
1.05043
1.04768
1.03911
1.03295
1.03117
1.03208
1.0358
1.04182
1.04748
1.05136
1.0536
1.0564
1.05938
1.06233
1.06456
1.06633
1.06971
1.07069
1.0699
1.07001
1.07086
1.0711
1.0709
1.06978
1.06928
1.06831
1.06845
1.06829
1.06881
1.06878
1.06871
1.06761
1.06738
1.06672
1.06705
1.06731
1.06802
1.06984
1.075
1.0787
1.07655
1.07664
1.07693
1.06597
1.05772
1.05686
1.06281
1.02505
1.02077
1.02323
1.02643
1.02028
1.01552
1.01408
1.01096
1.0091
1.00682
1.00655
1.00354
1.00338
1.00185
1.00381
0.999942
1.00115
1.0024
0.99915
1.0038
0.999403
0.998532
1.00272
1.00081
1.00068
1.00279
0.998882
0.998872
1.00383
0.999011
1.00237
1.00075
1.00042
1.0036
1.0028
1.00472
1.00347
1.00654
1.00731
1.00934
1.01065
1.01389
1.01455
1.01687
1.01737
1.01283
1.00715
1.00079
1.00058
1.01769
1.01875
1.01868
1.01983
1.02067
1.02203
1.02233
1.02532
1.02565
1.02805
1.02858
1.03018
1.03143
1.03245
1.03292
1.0344
1.03477
1.03486
1.03652
1.0364
1.03758
1.03841
1.0402
1.04054
1.04289
1.04283
1.04466
1.04434
1.04484
1.04437
1.04463
1.04659
1.04679
1.04774
1.04711
1.04839
1.04821
1.04815
1.0505
1.04952
1.05184
1.05092
1.05084
1.05194
1.05172
1.05205
1.05243
1.05286
1.05235
1.0522
1.05203
1.05083
1.05145
1.051
1.04942
1.04922
1.04888
1.04788
1.04742
1.04612
1.04554
1.04426
1.04359
1.04209
1.04083
1.0398
1.03764
1.03649
1.0348
1.03256
1.03121
1.02865
1.02656
1.02456
1.02182
1.01954
1.01681
1.01428
1.01038
1.0067
1.0048
1.00248
0.999536
0.996063
0.992725
0.989697
0.986358
0.983613
0.979993
0.977408
0.974309
0.971594
0.968855
0.966368
0.964265
0.962111
0.9612
0.959709
0.959743
0.959547
0.962013
0.959762
0.965249
0.96373
0.968061
0.968097
0.972239
0.972217
0.976397
0.97623
0.979981
0.9805
0.985178
0.984049
0.988478
0.987342
0.991382
0.990957
0.995244
0.994619
0.998472
0.998125
1.00168
1.00118
1.00544
1.00465
1.009
1.00846
1.0126
1.01244
1.01653
1.01641
1.02082
1.02097
1.02508
1.02554
1.02973
1.0301
1.03459
1.03544
1.04012
1.04101
1.0462
1.0475
1.05261
1.05466
1.06013
1.06261
1.06839
1.07154
1.07707
1.08073
1.08536
1.08866
1.09244
1.09438
1.0949
1.09081
1.08538
1.07443
1.05988
1.04196
1.02074
1.00283
0.985575
0.967301
0.949596
0.933138
0.918803
0.901389
0.893508
0.883886
0.878368
0.874386
0.870172
0.869127
0.86691
0.867821
0.866781
0.868055
0.867832
0.869747
0.870007
0.872777
0.872573
0.873801
0.873169
0.873958
0.873397
0.874542
0.874082
0.875313
0.875105
0.876471
0.875818
0.87286
0.871023
0.871358
0.870865
0.871542
0.871142
0.87182
0.871719
0.873084
0.872978
0.873354
0.871222
0.869656
0.867728
0.865924
0.865139
0.86515
0.86455
0.865495
0.864874
0.866222
0.865629
0.867162
0.867041
0.870051
0.872887
0.884883
0.916391
0.941268
0.947566
0.942218
0.946776
0.948188
0.951414
0.954109
0.95763
0.960821
0.964524
0.969205
0.974113
0.979452
0.984505
0.989726
0.994864
1.00023
1.00514
1.01035
1.01526
1.0216
1.02691
1.0312
1.03465
1.03995
1.04468
1.04891
1.05233
1.05627
1.06034
1.06381
1.06757
1.0704
1.07356
1.07575
1.07799
1.08041
1.08081
1.0824
1.08101
1.08088
1.07977
1.07761
1.07657
1.07259
1.07077
1.06961
1.06628
1.04985
1.03549
1.04628
1.04096
1.03597
1.03355
1.03239
1.03495
1.04083
1.04689
1.05105
1.05338
1.05574
1.05836
1.06114
1.06452
1.06603
1.06787
1.07041
1.07123
1.07112
1.07231
1.07256
1.07253
1.07164
1.07066
1.06902
1.06876
1.06806
1.06855
1.06827
1.06798
1.06667
1.06614
1.06567
1.06533
1.06598
1.06548
1.06966
1.07132
1.07738
1.07579
1.07774
1.07518
1.06564
1.05761
1.05337
1.05936
1.02907
1.02061
1.01734
1.02206
1.01886
1.0154
1.01353
1.01183
1.0092
1.00732
1.00623
1.004
1.00423
1.00362
1.00196
1.00157
1.00114
1.00168
0.99904
1.00383
0.999544
0.998649
1.00283
1.00088
1.00096
1.00292
0.998955
0.998799
1.00378
0.998946
1.00224
1.00164
1.00133
1.00182
1.00316
1.00345
1.00419
1.00662
1.00732
1.00944
1.01081
1.0138
1.01445
1.01667
1.01736
1.0139
1.00712
0.998895
1.00299
1.01667
1.01496
1.01361
1.0141
1.01444
1.0147
1.01681
1.01831
1.01954
1.02026
1.0222
1.02278
1.02438
1.02489
1.02625
1.02668
1.0278
1.0285
1.03031
1.03089
1.03192
1.03292
1.03483
1.03553
1.03667
1.03658
1.03783
1.0379
1.03828
1.03852
1.03957
1.04066
1.041
1.04151
1.04175
1.04283
1.0424
1.04431
1.04479
1.04506
1.04646
1.04551
1.04593
1.04655
1.04632
1.04757
1.04763
1.04787
1.04734
1.04677
1.0466
1.04603
1.04671
1.04538
1.04374
1.04415
1.04361
1.0425
1.04164
1.04008
1.03982
1.03845
1.03722
1.03573
1.03446
1.03278
1.03065
1.02943
1.02728
1.02511
1.02384
1.02077
1.0188
1.01681
1.01412
1.01184
1.00926
1.00697
1.00331
1.00029
0.998796
0.997009
0.99468
0.991784
0.989493
0.986941
0.98424
0.981756
0.97893
0.976247
0.973524
0.971001
0.968435
0.966165
0.964125
0.962118
0.961112
0.959667
0.959729
0.95999
0.962231
0.960126
0.965343
0.964134
0.968025
0.968394
0.972383
0.972622
0.976621
0.976458
0.980075
0.980527
0.984959
0.984426
0.988432
0.987606
0.991547
0.991125
0.995226
0.99491
0.998486
0.998356
1.00208
1.00174
1.00565
1.00523
1.00917
1.00901
1.01284
1.01283
1.01649
1.01675
1.02043
1.02114
1.02486
1.0257
1.02952
1.03019
1.03391
1.03556
1.03966
1.04156
1.04594
1.04795
1.05189
1.05445
1.05897
1.0622
1.06691
1.07108
1.07574
1.07943
1.08444
1.08718
1.09088
1.09281
1.09323
1.08939
1.083
1.07087
1.05745
1.04018
1.02316
1.00392
0.988557
0.970052
0.953459
0.937958
0.924774
0.90709
0.89885
0.888345
0.885093
0.880527
0.87578
0.87377
0.873139
0.872977
0.871721
0.873167
0.872283
0.874354
0.874222
0.876803
0.876566
0.877555
0.877089
0.877919
0.876913
0.877865
0.87736
0.878544
0.878143
0.879167
0.87883
0.876055
0.87375
0.874097
0.873528
0.873817
0.874025
0.873838
0.873868
0.875202
0.875277
0.874493
0.873451
0.871207
0.870228
0.867247
0.867504
0.866316
0.8667
0.866176
0.866968
0.866377
0.867245
0.866912
0.867831
0.868459
0.870791
0.879816
0.908661
0.934604
0.939539
0.93339
0.936867
0.93751
0.940029
0.941914
0.944931
0.947687
0.950755
0.955047
0.959744
0.964569
0.969795
0.97529
0.980815
0.986713
0.992211
0.99812
1.0037
1.01077
1.01689
1.02152
1.02555
1.03111
1.03644
1.04086
1.04487
1.04876
1.0534
1.05728
1.0612
1.065
1.06809
1.07142
1.07381
1.07704
1.07912
1.07988
1.08228
1.08053
1.08244
1.08035
1.07889
1.07954
1.07297
1.0779
1.06555
1.07891
1.04139
1.03352
1.03946
1.03403
1.03175
1.03287
1.03324
1.03753
1.04335
1.04929
1.05253
1.05481
1.05722
1.05926
1.06257
1.06636
1.06724
1.06821
1.07026
1.07093
1.07227
1.07258
1.07285
1.07188
1.07106
1.06957
1.06933
1.06835
1.06856
1.06822
1.06716
1.06592
1.06466
1.06409
1.06413
1.06436
1.06422
1.06756
1.0692
1.07349
1.07231
1.07473
1.0731
1.06511
1.05755
1.05001
1.05566
1.03979
1.02468
1.01337
1.02109
1.02098
1.0157
1.01399
1.01071
1.00941
1.00703
1.00625
1.00395
1.0038
1.00201
1.00382
1.00024
1.00148
1.00233
0.999284
1.00379
0.999301
0.998499
1.00271
1.00084
1.00065
1.00281
0.998873
0.998662
1.00379
0.999117
1.00228
1.0007
1.00067
1.00365
1.00228
1.00436
1.00348
1.00652
1.00727
1.00949
1.01072
1.01379
1.01434
1.01654
1.01735
1.01424
1.01003
1.00113
1.00881
1.0159
1.01377
1.01125
1.0105
1.01004
1.01058
1.01098
1.0124
1.01323
1.0147
1.01575
1.01618
1.01672
1.01884
1.01918
1.0204
1.0203
1.02214
1.02218
1.02327
1.02387
1.02572
1.027
1.02778
1.02851
1.02836
1.02922
1.03007
1.03121
1.03135
1.03188
1.0326
1.03445
1.03418
1.03431
1.03595
1.03606
1.03709
1.03808
1.0382
1.03852
1.0381
1.03869
1.03933
1.03981
1.04102
1.04055
1.04047
1.03975
1.03924
1.03953
1.03898
1.03868
1.03721
1.03559
1.03647
1.03526
1.03376
1.03291
1.03179
1.03126
1.02922
1.02772
1.02676
1.02547
1.02382
1.02205
1.02055
1.01858
1.01727
1.01572
1.01296
1.01229
1.01036
1.00804
1.00686
1.00495
1.00317
1.00069
0.998182
0.996736
0.995442
0.993448
0.991052
0.988626
0.986313
0.983869
0.981497
0.97875
0.976211
0.973606
0.971132
0.968531
0.966462
0.964414
0.962451
0.961433
0.960206
0.959948
0.960388
0.962429
0.961029
0.965726
0.964748
0.968452
0.968743
0.972537
0.972967
0.976915
0.977125
0.980452
0.981056
0.98509
0.984572
0.988819
0.988058
0.991919
0.991887
0.995303
0.995342
0.998637
0.998591
1.00188
1.00182
1.00561
1.0056
1.00902
1.00919
1.01291
1.01324
1.01688
1.01731
1.02079
1.02169
1.02536
1.02637
1.03001
1.03146
1.03469
1.03672
1.04046
1.04217
1.04611
1.04875
1.05282
1.05558
1.06023
1.06369
1.06809
1.07163
1.0763
1.07918
1.08358
1.08652
1.08937
1.09108
1.09144
1.08736
1.08229
1.07312
1.06044
1.04486
1.02794
1.00912
0.993972
0.975166
0.960002
0.94275
0.929488
0.910228
0.902651
0.891165
0.886337
0.880287
0.875481
0.873319
0.870757
0.870448
0.870249
0.870986
0.870271
0.871771
0.873233
0.873264
0.875049
0.874616
0.875473
0.87521
0.87523
0.875392
0.875591
0.876313
0.877084
0.876645
0.877609
0.873353
0.872791
0.872104
0.872389
0.871928
0.872377
0.87225
0.873145
0.873488
0.874312
0.87351
0.872636
0.87019
0.869048
0.865832
0.86595
0.865254
0.865451
0.865211
0.865982
0.865551
0.866501
0.866146
0.867054
0.867591
0.869298
0.876602
0.903609