/*--------------------------------*- C++ -*----------------------------------*\
| =========                 |                                                 |
| \\      /  F ield         | OpenFOAM: The Open Source CFD Toolbox           |
|  \\    /   O peration     | Version:  v2006                                 |
|   \\  /    A nd           | Website:  www.openfoam.com                      |
|    \\/     M anipulation  |                                                 |
\*---------------------------------------------------------------------------*/
FoamFile
{
    version     2.0;
    format      ascii;
    class       volVectorField;
    location    "50";
    object      U;
}
// * * * * * * * * * * * * * * * * * * * * * * * * * * * * * * * * * * * * * //

dimensions      [0 1 -1 0 0 0 0];


internalField   nonuniform List<vector> 
93840
(
(0.862763 0.0419293 8.33149e-17)
(0.858915 0.0465624 1.62802e-16)
(0.863189 0.0369516 1.36848e-16)
(0.861113 0.030611 -2.70045e-16)
(0.859519 0.0517113 2.24852e-16)
(0.863894 0.0301452 -3.43811e-16)
(0.864893 0.0411907 -3.84123e-16)
(0.858778 0.0358123 2.3456e-16)
(0.854517 0.038129 -5.07643e-18)
(0.861031 0.0340478 -4.04504e-17)
(0.844657 0.0344332 -1.86157e-16)
(0.857756 0.0286482 3.30365e-16)
(0.840539 0.0282994 -2.60725e-16)
(0.847266 0.0239826 1.331e-16)
(0.830102 0.0234444 7.27332e-17)
(0.827288 0.0234395 5.82569e-17)
(0.814456 0.0238911 8.78416e-17)
(0.808536 0.0258117 5.50446e-17)
(0.80217 0.0294259 7.60778e-17)
(0.797276 0.0158375 6.97294e-17)
(0.754135 0.00704277 7.65859e-17)
(0.7359 0.0868236 7.93553e-17)
(0.80676 0.178195 8.35503e-17)
(0.869704 0.125087 7.22853e-17)
(0.775844 -0.0545247 2.79972e-17)
(0.546763 -0.107386 2.8763e-17)
(0.481444 -0.0057064 4.06997e-17)
(0.513176 0.0585891 3.29894e-17)
(0.545187 0.0555935 3.06721e-17)
(0.57301 0.0914207 2.94543e-17)
(0.602085 0.0423332 2.32354e-17)
(0.497848 0.0203511 2.73141e-17)
(0.502355 -0.0109146 2.16337e-17)
(0.494743 -0.0209172 2.63216e-17)
(0.45765 -0.0234359 2.2873e-17)
(0.459242 -0.0200534 2.49577e-17)
(0.431564 -0.0227426 2.40732e-17)
(0.43459 -0.0217841 2.40352e-17)
(0.415092 -0.0206198 2.41213e-17)
(0.415835 -0.0190173 2.41307e-17)
(0.398075 -0.0183688 2.39012e-17)
(0.404227 -0.0167254 2.39672e-17)
(0.380881 -0.0151559 2.4201e-17)
(0.392575 -0.0139141 2.41989e-17)
(0.367705 -0.0141623 2.326e-17)
(0.38221 -0.0134526 2.47182e-17)
(0.358845 -0.0100103 2.32806e-17)
(0.365469 -0.0106897 2.45853e-17)
(0.348674 -0.00858678 2.35077e-17)
(0.357012 -0.00949321 2.39609e-17)
(0.339598 -0.0054465 2.39205e-17)
(0.342722 -0.00602051 2.38836e-17)
(0.333441 -0.00520933 2.41012e-17)
(0.330367 -0.00394753 2.29618e-17)
(0.325478 -0.000743914 2.41979e-17)
(0.322708 0.000109424 2.3811e-17)
(0.321521 -0.000538164 2.33423e-17)
(0.319396 0.00141171 2.40417e-17)
(0.305858 0.000964767 2.35262e-17)
(0.312326 0.00293341 2.35158e-17)
(0.297527 0.00505902 2.36629e-17)
(0.303588 0.00432827 2.35104e-17)
(0.29318 0.00729614 2.37905e-17)
(0.293838 0.00837199 2.37317e-17)
(0.290692 0.00960096 2.40133e-17)
(0.286321 0.0102694 2.40848e-17)
(0.287264 0.0120431 2.42305e-17)
(0.283849 0.0127191 2.47011e-17)
(0.281814 0.014343 2.53043e-17)
(0.2807 0.0146991 2.59276e-17)
(0.279229 0.0162139 2.65769e-17)
(0.280368 0.0172625 2.78179e-17)
(0.278505 0.0184512 2.8647e-17)
(0.28034 0.0195294 3.01401e-17)
(0.282215 0.0208535 2.98716e-17)
(0.28224 0.0219744 3.10721e-17)
(0.285176 0.0231893 3.35677e-17)
(0.288073 0.0245827 3.46024e-17)
(0.290894 0.0259063 3.65101e-17)
(0.295342 0.0271139 3.75264e-17)
(0.297306 0.0285891 3.87281e-17)
(0.302172 0.0297822 4.08663e-17)
(0.304375 0.0314717 4.24753e-17)
(0.309953 0.0331786 4.44648e-17)
(0.314695 0.0345669 4.51172e-17)
(0.319059 0.0359777 4.79688e-17)
(0.326524 0.0378302 4.92089e-17)
(0.33085 0.0391719 5.03678e-17)
(0.337616 0.040951 5.23864e-17)
(0.343792 0.0429737 5.34242e-17)
(0.350949 0.0451502 5.72605e-17)
(0.360034 0.0472158 5.6499e-17)
(0.367331 0.049102 5.698e-17)
(0.375693 0.0510604 5.6552e-17)
(0.384505 0.0530955 5.86594e-17)
(0.393201 0.0550724 5.78976e-17)
(0.402991 0.0569165 5.98682e-17)
(0.411502 0.0586359 5.56239e-17)
(0.420952 0.0604898 5.73536e-17)
(0.431101 0.0624293 5.88052e-17)
(0.440954 0.0639689 5.56495e-17)
(0.450844 0.0655303 5.78511e-17)
(0.460395 0.0678377 6.14741e-17)
(0.477789 0.0718902 5.77701e-17)
(0.497291 0.0718262 6.14365e-17)
(0.503589 0.0686407 5.68155e-17)
(0.507169 0.0694237 6.59295e-17)
(0.519454 0.0725084 6.1799e-17)
(0.534576 0.0733307 7.37127e-17)
(0.549383 0.0736896 6.80219e-17)
(0.56443 0.0734313 7.54906e-17)
(0.579353 0.0729486 6.77001e-17)
(0.593976 0.0721553 7.41948e-17)
(0.611777 0.071821 6.76424e-17)
(0.628793 0.0695776 7.41271e-17)
(0.645739 0.0671648 6.9502e-17)
(0.661551 0.0639363 6.91881e-17)
(0.67977 0.061343 6.56646e-17)
(0.69538 0.0559775 6.44487e-17)
(0.711601 0.0515091 5.98195e-17)
(0.725339 0.044874 5.70274e-17)
(0.740712 0.040158 5.29883e-17)
(0.749989 0.030763 4.82942e-17)
(0.761982 0.025026 4.22292e-17)
(0.761701 0.0138771 3.73083e-17)
(0.763424 0.00885283 2.98353e-17)
(0.77219 -0.000443605 2.49144e-17)
(0.761508 -0.00757169 1.77138e-17)
(0.766062 -0.0116392 1.30385e-17)
(0.762889 -0.0204613 6.78154e-18)
(0.75892 -0.0251325 3.00174e-18)
(0.754855 -0.0313101 -2.1693e-18)
(0.750794 -0.0352199 -4.93841e-18)
(0.747507 -0.0396172 -9.55135e-18)
(0.745697 -0.0440817 -1.08472e-17)
(0.742626 -0.0491515 -1.5125e-17)
(0.73727 -0.0523261 -1.49342e-17)
(0.73218 -0.0555444 -1.71934e-17)
(0.731871 -0.0591805 -1.69854e-17)
(0.727788 -0.061703 -1.87618e-17)
(0.728922 -0.0660578 -1.81591e-17)
(0.725958 -0.0699033 -2.00333e-17)
(0.723136 -0.0737776 -1.89848e-17)
(0.719664 -0.076031 -1.80897e-17)
(0.718785 -0.0800128 -1.78105e-17)
(0.716254 -0.0829352 -1.7158e-17)
(0.714966 -0.0872023 -1.51592e-17)
(0.713814 -0.0911968 -1.42866e-17)
(0.71155 -0.0955958 -1.17781e-17)
(0.707797 -0.0992303 -8.70214e-18)
(0.705664 -0.103512 -6.4339e-18)
(0.702303 -0.107207 -2.00719e-18)
(0.699781 -0.112106 1.35981e-18)
(0.695693 -0.115991 6.77839e-18)
(0.691784 -0.120795 1.11065e-17)
(0.687637 -0.125099 1.6019e-17)
(0.68192 -0.129963 2.05522e-17)
(0.677473 -0.134564 2.58153e-17)
(0.6705 -0.139236 2.99956e-17)
(0.664622 -0.142604 3.61514e-17)
(0.657513 -0.146832 4.04054e-17)
(0.652129 -0.151987 4.62506e-17)
(0.644897 -0.158232 4.98126e-17)
(0.637933 -0.164047 5.46893e-17)
(0.626553 -0.170291 5.78596e-17)
(0.615643 -0.17634 6.16666e-17)
(0.602723 -0.182788 6.39275e-17)
(0.59067 -0.187306 6.83679e-17)
(0.577636 -0.193622 7.02134e-17)
(0.563224 -0.200861 7.51621e-17)
(0.541862 -0.207412 7.68693e-17)
(0.520706 -0.212023 8.02132e-17)
(0.495981 -0.214426 8.19888e-17)
(0.471008 -0.219693 8.57591e-17)
(0.439042 -0.226489 8.83683e-17)
(0.403408 -0.22748 8.99031e-17)
(0.359692 -0.222951 9.35671e-17)
(0.304478 -0.210336 9.64453e-17)
(0.242114 -0.184925 9.72484e-17)
(0.174048 -0.145226 9.4077e-17)
(0.116264 -0.100056 8.5869e-17)
(0.0093711 0.0459804 -3.0735e-17)
(-0.00190083 0.154884 1.24487e-16)
(-0.00685894 0.398257 2.06851e-16)
(0.106507 0.531009 2.2583e-16)
(0.219958 0.71985 2.29207e-16)
(0.442992 0.771362 2.30346e-16)
(0.608866 0.788368 2.27459e-16)
(0.731044 0.713311 2.25262e-16)
(0.773422 0.676564 2.22141e-16)
(0.883184 0.667586 2.1782e-16)
(0.971953 0.641103 2.14703e-16)
(1.02486 0.591574 2.13871e-16)
(1.06421 0.550845 2.12323e-16)
(1.1218 0.520689 2.0809e-16)
(1.12718 0.481811 2.06013e-16)
(1.14791 0.451955 2.04147e-16)
(1.14869 0.418092 2.02607e-16)
(1.15283 0.395463 2.01003e-16)
(1.15269 0.371216 1.99028e-16)
(1.14362 0.348718 1.97137e-16)
(1.14027 0.330263 1.94948e-16)
(1.13284 0.312899 1.92288e-16)
(1.12805 0.298139 1.88341e-16)
(1.11956 0.282632 1.86712e-16)
(1.11234 0.270161 1.82359e-16)
(1.09964 0.25714 1.79147e-16)
(1.09286 0.245847 1.743e-16)
(1.08026 0.233632 1.70545e-16)
(1.07605 0.224374 1.64316e-16)
(1.06853 0.213773 1.59622e-16)
(1.06541 0.204506 1.5269e-16)
(1.05783 0.195174 1.47497e-16)
(1.05417 0.186214 1.402e-16)
(1.04339 0.177065 1.34176e-16)
(1.03902 0.169464 1.26501e-16)
(1.02806 0.162197 1.20457e-16)
(1.02491 0.154763 1.11646e-16)
(1.01559 0.147666 1.0464e-16)
(1.01441 0.139254 9.55291e-17)
(1.01981 0.134109 8.88312e-17)
(1.01857 0.125689 7.92965e-17)
(1.00814 0.119082 7.2351e-17)
(1.0045 0.114626 6.32358e-17)
(0.994659 0.108608 5.70642e-17)
(0.991258 0.104397 4.88874e-17)
(0.981463 0.0994878 4.27875e-17)
(0.978018 0.0952464 3.4343e-17)
(0.966308 0.0902744 2.96858e-17)
(0.962659 0.0867438 2.18736e-17)
(0.956609 0.0816485 1.75545e-17)
(0.962916 0.0756894 1.02266e-17)
(0.961239 0.0703258 8.05508e-18)
(0.964625 0.0640947 2.26018e-18)
(0.962747 0.0593392 6.09848e-19)
(0.960452 0.0551157 -5.27266e-18)
(0.951775 0.0507234 -6.22161e-18)
(0.950646 0.0466532 -1.07179e-17)
(0.941024 0.04247 -1.1277e-17)
(0.939284 0.0383887 -1.44646e-17)
(0.930448 0.0344096 -1.50139e-17)
(0.927915 0.0296466 -1.82907e-17)
(0.920427 0.0258748 -1.90458e-17)
(0.915588 0.0205828 -2.04057e-17)
(0.905377 0.0166022 -2.05202e-17)
(0.885063 0.0121163 -2.10994e-17)
(0.84808 0.00972076 -1.98592e-17)
(0.740355 0.00385072 -1.87995e-17)
(0.594136 8.05637e-05 -1.44902e-17)
(0.574707 -0.00229377 -9.69901e-18)
(0.617291 -0.00797218 -2.23121e-18)
(0.612202 -0.00996469 4.31597e-18)
(0.622338 -0.0134429 1.3077e-17)
(0.620634 -0.016796 2.05258e-17)
(0.619894 -0.020724 2.95331e-17)
(0.614046 -0.0235776 3.66334e-17)
(0.608348 -0.0269216 4.4832e-17)
(0.599314 -0.0303665 5.02159e-17)
(0.585521 -0.0335146 5.70438e-17)
(0.569515 -0.0357482 5.93192e-17)
(0.553844 -0.0379602 6.37845e-17)
(0.537113 -0.039522 6.44931e-17)
(0.520824 -0.041089 6.70719e-17)
(0.503339 -0.0422015 6.5859e-17)
(0.485872 -0.043212 6.67929e-17)
(0.467341 -0.0434338 6.31795e-17)
(0.450806 -0.0441279 6.32692e-17)
(0.43061 -0.0455333 5.91309e-17)
(0.403796 -0.0454467 5.87145e-17)
(0.377752 -0.0412775 5.52685e-17)
(0.365385 -0.0391905 5.35527e-17)
(0.348304 -0.0399727 5.09688e-17)
(0.321877 -0.0398988 5.08525e-17)
(0.289299 -0.0357831 4.79196e-17)
(0.268474 -0.0321826 4.70677e-17)
(0.244333 -0.0298688 4.48256e-17)
(0.218526 -0.0280765 4.61077e-17)
(0.182005 -0.0239604 4.04824e-17)
(0.154721 -0.0201707 3.35017e-17)
(0.115554 -0.0150582 3.13721e-17)
(0.0939962 -0.011074 2.74155e-17)
(0.0363023 -0.00172028 3.90415e-17)
(-0.0136354 0.00208986 1.41557e-17)
(-0.0192687 0.000265364 1.88896e-17)
(-0.0154979 5.8764e-05 6.53029e-18)
(-0.0119181 0.000681634 1.95343e-18)
(-0.0100051 0.00116386 1.46576e-17)
(-0.0097235 0.00115681 3.1213e-17)
(-0.00892404 0.00108087 3.53783e-17)
(-0.00579264 0.000494777 2.24466e-17)
(-0.000305089 -0.000293028 4.91506e-17)
(0.00170612 -2.21634e-05 -1.58415e-17)
(0.00323415 -0.000439222 3.21629e-17)
(0.00457422 -0.00113169 6.32721e-17)
(0.0069583 -0.00148405 3.20968e-17)
(0.00850032 -0.00168968 3.12917e-17)
(0.0104159 -0.00211507 2.56069e-17)
(0.0126209 -0.00232318 2.39203e-17)
(0.0103191 -0.00163063 -6.27003e-18)
(0.00862493 -0.00122711 5.45665e-18)
(0.0083517 -0.00152566 -2.69171e-17)
(0.0077411 -0.00137187 -1.38342e-17)
(0.00665451 -0.00118565 -3.77658e-17)
(0.00622117 -0.00120946 -1.93156e-17)
(0.00592213 -0.00101843 -1.87186e-18)
(0.00465303 -0.000757714 -2.26138e-17)
(0.00379653 -0.00086778 2.75737e-17)
(0.00185307 -0.000189347 1.78483e-17)
(-1.19366e-05 0.000172507 -1.34363e-19)
(-0.00272944 0.000488679 2.57156e-18)
(-0.00511746 0.000977913 4.86804e-18)
(-0.00685213 0.00131714 1.58977e-17)
(-0.00761365 0.00202622 2.02287e-17)
(-0.0127019 0.00426924 5.90211e-18)
(-0.0209457 0.00723223 -9.96052e-19)
(-0.0319359 0.00866111 1.09164e-17)
(-0.0392678 0.00858064 1.01273e-17)
(-0.0426521 0.00861477 1.40547e-17)
(-0.0447681 0.00867684 3.71708e-18)
(-0.0470945 0.00850178 1.38661e-17)
(-0.0486857 0.00973801 6.91947e-18)
(-0.049097 0.01005 1.69912e-17)
(-0.0521109 0.0113976 1.3664e-17)
(-0.0546998 0.0121689 1.73672e-17)
(-0.059251 0.012762 1.95588e-17)
(-0.0637605 0.0140732 2.47353e-17)
(-0.0666036 0.0137972 2.49872e-17)
(-0.0685179 0.0127469 2.87338e-17)
(-0.065 0.0107788 2.00839e-17)
(-0.0651131 0.00939706 2.32577e-17)
(-0.0557568 0.00545478 2.0403e-17)
(-0.0558847 0.00522267 1.74687e-17)
(-0.040247 -0.00174828 1.74716e-17)
(-0.0368482 -0.00260215 1.26977e-17)
(0.00566718 -0.0260964 1.54623e-17)
(0.0123202 -0.0851575 1.51092e-17)
(0.163538 0.00773035 1.39368e-17)
(0.255065 0.0325161 2.55778e-17)
(0.423578 0.115323 1.97898e-17)
(0.440744 0.0812997 3.41885e-17)
(0.518176 0.0852952 1.84986e-17)
(0.478957 0.0126769 4.68147e-17)
(0.387247 -0.0893279 2.64334e-17)
(0.770848 -0.0934682 1.83455e-17)
(0.873003 0.125488 6.37337e-17)
(0.80263 0.183962 8.10653e-17)
(0.730093 0.0945686 8.09137e-17)
(0.751195 0.00572177 7.5469e-17)
(0.79789 0.0152004 6.84867e-17)
(0.802339 0.0295192 8.27356e-17)
(0.808949 0.0260558 4.88186e-17)
(0.814499 0.0234889 1.05768e-16)
(0.826236 0.0237041 3.45901e-17)
(0.830851 0.0228596 1.305e-16)
(0.838188 0.025875 -7.03911e-17)
(0.847444 0.027165 5.81908e-16)
(0.849125 0.0297042 -3.4653e-16)
(0.85679 0.0323253 3.43303e-16)
(0.850318 0.0357904 -2.43141e-16)
(0.860375 0.0367305 2.3615e-16)
(0.861909 0.0359018 -5.43747e-16)
(0.856155 0.0422561 -4.60005e-16)
(0.859324 0.030875 4.25729e-16)
(0.859492 0.0517507 -1.30157e-16)
(0.861144 0.0302389 4.81177e-17)
(0.863175 0.0369457 2.37504e-17)
(0.858899 0.0466092 1.1683e-16)
(0.862768 0.0421279 2.98991e-17)
(0.862769 0.0422514 3.99293e-17)
(0.858891 0.046637 1.29385e-16)
(0.863162 0.0369749 5.89237e-17)
(0.861149 0.0302419 -4.01004e-17)
(0.859445 0.0517554 -1.58603e-16)
(0.858973 0.0309475 7.02426e-16)
(0.852615 0.0428332 -5.94946e-16)
(0.863545 0.0355912 -3.81984e-16)
(0.861935 0.0365148 2.13528e-16)
(0.848159 0.0361985 -2.16454e-16)
(0.854875 0.0327067 4.19164e-16)
(0.848707 0.0297992 -3.87897e-16)
(0.847357 0.0271347 2.77103e-16)
(0.835076 0.0264041 3.6106e-17)
(0.830862 0.0228298 5.20123e-17)
(0.827064 0.0236844 4.27322e-17)
(0.814566 0.0239067 8.94494e-17)
(0.808903 0.0261203 6.1406e-17)
(0.802476 0.0297349 7.79194e-17)
(0.797839 0.0169185 6.67145e-17)
(0.756462 0.00945555 7.72331e-17)
(0.743516 0.0835404 8.00922e-17)
(0.814645 0.157832 8.38452e-17)
(0.894993 0.122514 7.66345e-17)
(0.772242 -0.0499325 3.97991e-17)
(0.589317 -0.0783904 3.43846e-17)
(0.538748 0.0190645 4.01122e-17)
(0.504879 0.0594228 3.37727e-17)
(0.523445 0.0534837 3.37208e-17)
(0.534839 0.0570975 3.17117e-17)
(0.564749 0.0250642 2.89064e-17)
(0.55075 0.00630818 2.91728e-17)
(0.536879 0.00603403 2.82169e-17)
(0.526699 -0.0127092 2.91742e-17)
(0.511878 -0.00914287 2.78115e-17)
(0.500149 -0.0133373 2.92865e-17)
(0.489261 -0.0124188 2.72213e-17)
(0.481197 -0.0169179 2.87792e-17)
(0.470657 -0.0139881 2.78262e-17)
(0.46326 -0.0138002 2.82726e-17)
(0.455862 -0.0146273 2.77295e-17)
(0.44783 -0.0119416 2.84286e-17)
(0.440758 -0.011408 2.7575e-17)
(0.434765 -0.0109822 2.8205e-17)
(0.427949 -0.00990559 2.74639e-17)
(0.423718 -0.0107051 2.83076e-17)
(0.416183 -0.00619738 2.75754e-17)
(0.410123 -0.00818679 2.78766e-17)
(0.404417 -0.00692748 2.76219e-17)
(0.403056 -0.00572805 2.73703e-17)
(0.391325 -0.00270299 2.8284e-17)
(0.39043 -0.00466617 2.72767e-17)
(0.385588 -0.00336976 2.7838e-17)
(0.379163 -0.0012753 2.68045e-17)
(0.374602 0.00191865 2.85498e-17)
(0.372018 0.00151448 2.73202e-17)
(0.371153 0.00174384 2.70758e-17)
(0.365709 0.00418083 2.82087e-17)
(0.357308 0.00290719 2.71149e-17)
(0.358399 0.00542209 2.77302e-17)
(0.348311 0.00696063 2.78488e-17)
(0.350509 0.00701179 2.76275e-17)
(0.342989 0.00933907 2.80306e-17)
(0.342469 0.0110865 2.78059e-17)
(0.338991 0.0119203 2.86013e-17)
(0.334954 0.0125282 2.84516e-17)
(0.336797 0.01478 2.89758e-17)
(0.332362 0.0155461 2.94511e-17)
(0.33136 0.0168136 3.00364e-17)
(0.329721 0.0178938 3.0699e-17)
(0.328917 0.018957 3.13968e-17)
(0.330195 0.0201487 3.19539e-17)
(0.328491 0.0217292 3.35999e-17)
(0.330573 0.0224593 3.42687e-17)
(0.333048 0.0241192 3.61892e-17)
(0.333075 0.0253457 3.78291e-17)
(0.336665 0.0267366 3.89624e-17)
(0.340033 0.0283447 4.07056e-17)
(0.343328 0.0295634 4.34305e-17)
(0.348075 0.0314275 4.45333e-17)
(0.35045 0.0325981 4.69706e-17)
(0.355685 0.0344532 4.84757e-17)
(0.358441 0.0360071 5.08045e-17)
(0.364712 0.0379423 5.14296e-17)
(0.369953 0.0397079 5.42611e-17)
(0.374958 0.0412461 5.5701e-17)
(0.383316 0.0432668 5.77306e-17)
(0.388127 0.045037 6.00425e-17)
(0.395862 0.046911 6.14459e-17)
(0.402852 0.049352 6.30093e-17)
(0.410793 0.0516716 6.41774e-17)
(0.420759 0.0540103 6.24199e-17)
(0.428763 0.0561605 6.59548e-17)
(0.43815 0.0582758 6.45404e-17)
(0.44788 0.0606285 6.64442e-17)
(0.457421 0.0627614 6.44915e-17)
(0.4682 0.0648779 6.45415e-17)
(0.477688 0.0669937 6.4319e-17)
(0.488239 0.0689742 6.38182e-17)
(0.49948 0.0712229 6.16717e-17)
(0.510387 0.0729298 6.47969e-17)
(0.521718 0.0746603 6.49455e-17)
(0.532845 0.0770089 6.25026e-17)
(0.551261 0.0809224 6.57919e-17)
(0.570863 0.0810415 6.78197e-17)
(0.578177 0.0781975 7.0544e-17)
(0.583941 0.0789159 7.52065e-17)
(0.597737 0.081896 7.52067e-17)
(0.61402 0.082689 7.95868e-17)
(0.630092 0.0831142 7.74512e-17)
(0.646426 0.0827279 8.29124e-17)
(0.662669 0.0821065 7.82043e-17)
(0.6787 0.0809597 8.27847e-17)
(0.697673 0.0804858 7.80245e-17)
(0.715612 0.077787 8.13187e-17)
(0.733607 0.0749892 7.63011e-17)
(0.75041 0.0711606 7.70948e-17)
(0.76929 0.0679255 7.25533e-17)
(0.785253 0.0620469 7.08086e-17)
(0.801952 0.0566315 6.54963e-17)
(0.815764 0.0495201 6.27392e-17)
(0.830985 0.0435284 5.47591e-17)
(0.839697 0.0340517 5.07556e-17)
(0.851142 0.0271523 4.25889e-17)
(0.850142 0.0154048 3.73064e-17)
(0.852148 0.00908225 2.91319e-17)
(0.85932 -0.000231296 2.35092e-17)
(0.848827 -0.00776782 1.57822e-17)
(0.852892 -0.0132387 1.08e-17)
(0.848418 -0.0227259 4.18848e-18)
(0.844431 -0.0271393 2.2922e-19)
(0.839599 -0.0344465 -5.3176e-18)
(0.835363 -0.0382344 -8.2078e-18)
(0.831404 -0.043765 -1.25901e-17)
(0.828915 -0.0483523 -1.4228e-17)
(0.825111 -0.0536363 -1.70034e-17)
(0.819488 -0.0572907 -1.74731e-17)
(0.813991 -0.0613156 -1.95281e-17)
(0.813296 -0.0647821 -1.89469e-17)
(0.808505 -0.0687555 -2.06862e-17)
(0.809048 -0.0724034 -1.98446e-17)
(0.805141 -0.0770358 -2.0584e-17)
(0.802169 -0.0803641 -1.95178e-17)
(0.797901 -0.0841474 -2.00931e-17)
(0.796576 -0.0873884 -1.84605e-17)
(0.79306 -0.0914395 -1.8076e-17)
(0.791231 -0.0949196 -1.5283e-17)
(0.789009 -0.099658 -1.40579e-17)
(0.785861 -0.104511 -9.48753e-18)
(0.781165 -0.108584 -6.95972e-18)
(0.778313 -0.112682 -1.17694e-18)
(0.77378 -0.117269 2.46217e-18)
(0.770452 -0.121739 9.27259e-18)
(0.76516 -0.126793 1.4225e-17)
(0.760326 -0.130991 2.09818e-17)
(0.754743 -0.135954 2.7232e-17)
(0.748193 -0.140133 3.37986e-17)
(0.742434 -0.145774 4.00977e-17)
(0.734295 -0.150247 4.78012e-17)
(0.726589 -0.154735 5.40448e-17)
(0.717497 -0.157823 6.13618e-17)
(0.709408 -0.163265 6.80549e-17)
(0.699816 -0.168654 7.46626e-17)
(0.690213 -0.174721 8.00793e-17)
(0.676139 -0.179064 8.62265e-17)
(0.66187 -0.18438 9.07897e-17)
(0.645612 -0.187706 9.60463e-17)
(0.628824 -0.192018 9.98423e-17)
(0.610751 -0.195288 1.06603e-16)
(0.591453 -0.201235 1.08505e-16)
(0.566087 -0.204318 1.14813e-16)
(0.540245 -0.207259 1.15961e-16)
(0.511259 -0.206772 1.2096e-16)
(0.482719 -0.206847 1.22022e-16)
(0.444093 -0.204053 1.2715e-16)
(0.401047 -0.19923 1.30017e-16)
(0.351613 -0.191997 1.31798e-16)
(0.302273 -0.17842 1.32428e-16)
(0.248648 -0.152308 1.34145e-16)
(0.188454 -0.107717 1.29778e-16)
(0.135918 -0.0428565 1.29159e-16)
(0.0758572 0.0602073 7.76435e-17)
(0.060708 0.193163 2.92002e-16)
(0.0553418 0.322254 3.31837e-16)
(0.142379 0.430391 3.30234e-16)
(0.272048 0.586509 3.26159e-16)
(0.448712 0.654468 3.1707e-16)
(0.609627 0.690644 3.10853e-16)
(0.736663 0.668948 3.07163e-16)
(0.802412 0.655633 3.03478e-16)
(0.897219 0.655039 3.00823e-16)
(0.988718 0.629686 2.96899e-16)
(1.0578 0.596172 2.95149e-16)
(1.10843 0.563966 2.89809e-16)
(1.17481 0.538407 2.84438e-16)
(1.1927 0.504631 2.78494e-16)
(1.22123 0.477586 2.75032e-16)
(1.23215 0.448908 2.6904e-16)
(1.2434 0.426041 2.65278e-16)
(1.24954 0.401605 2.59498e-16)
(1.24628 0.379898 2.54068e-16)
(1.24669 0.363404 2.47203e-16)
(1.24175 0.346119 2.41048e-16)
(1.23923 0.331047 2.32242e-16)
(1.2325 0.315263 2.26579e-16)
(1.22737 0.301959 2.19523e-16)
(1.21508 0.287263 2.12674e-16)
(1.20897 0.274699 2.04499e-16)
(1.19651 0.261862 1.97556e-16)
(1.19231 0.250914 1.8913e-16)
(1.18394 0.239301 1.82303e-16)
(1.18072 0.229434 1.74165e-16)
(1.1728 0.21852 1.66986e-16)
(1.16935 0.209039 1.58574e-16)
(1.15842 0.198749 1.51186e-16)
(1.15428 0.191019 1.42544e-16)
(1.14331 0.182019 1.3488e-16)
(1.13976 0.174337 1.25406e-16)
(1.13034 0.164922 1.17283e-16)
(1.1284 0.159151 1.07241e-16)
(1.13291 0.148545 9.9609e-17)
(1.13218 0.142279 8.97873e-17)
(1.12245 0.135185 8.21616e-17)
(1.11956 0.128909 7.23953e-17)
(1.10949 0.122952 6.54221e-17)
(1.10659 0.118188 5.50439e-17)
(1.09656 0.112737 4.93009e-17)
(1.09348 0.108022 3.90417e-17)
(1.08185 0.102468 3.35889e-17)
(1.07828 0.0979898 2.44597e-17)
(1.07093 0.0928747 2.0656e-17)
(1.07676 0.0859332 1.25223e-17)
(1.07455 0.0792673 9.65805e-18)
(1.0782 0.0729964 3.01733e-18)
(1.07617 0.0665325 3.05994e-19)
(1.07497 0.0621382 -4.93231e-18)
(1.06588 0.0577644 -6.55137e-18)
(1.06574 0.0531637 -1.13593e-17)
(1.05522 0.0488315 -1.2163e-17)
(1.0547 0.0438772 -1.60557e-17)
(1.04426 0.0393103 -1.70945e-17)
(1.04353 0.0343742 -1.99799e-17)
(1.03358 0.0299457 -2.07697e-17)
(1.03139 0.0237816 -2.28585e-17)
(1.01838 0.0200749 -2.32256e-17)
(1.00156 0.0146764 -2.40717e-17)
(0.966223 0.0139608 -2.32878e-17)
(0.858777 0.0116687 -2.22994e-17)
(0.717217 0.00829208 -1.83625e-17)
(0.687695 -0.00377932 -1.44093e-17)
(0.721993 -0.0117076 -7.81756e-18)
(0.712935 -0.0117346 -1.46815e-18)
(0.719673 -0.0163852 7.42227e-18)
(0.71575 -0.019322 1.51367e-17)
(0.713352 -0.0240411 2.46571e-17)
(0.706202 -0.0267082 3.28702e-17)
(0.699211 -0.0305845 4.16513e-17)
(0.689211 -0.0340511 4.92016e-17)
(0.674606 -0.0375707 5.58923e-17)
(0.657487 -0.039892 6.19781e-17)
(0.640597 -0.0426217 6.66863e-17)
(0.622593 -0.0443888 6.97222e-17)
(0.604863 -0.0462886 7.10607e-17)
(0.58588 -0.0474978 7.10658e-17)
(0.566928 -0.0486775 7.05864e-17)
(0.546801 -0.049019 7.03074e-17)
(0.528484 -0.0497326 6.74506e-17)
(0.506865 -0.050947 6.64045e-17)
(0.479033 -0.050547 6.34084e-17)
(0.451344 -0.0467085 6.09312e-17)
(0.436394 -0.0447025 5.87164e-17)
(0.417584 -0.0451463 5.75654e-17)
(0.39054 -0.044662 5.58279e-17)
(0.356872 -0.0404051 5.4944e-17)
(0.334301 -0.0367313 5.58813e-17)
(0.3083 -0.0340824 5.30492e-17)
(0.283239 -0.0318983 4.93845e-17)
(0.246871 -0.0277842 5.28664e-17)
(0.221049 -0.0241309 4.50944e-17)
(0.18619 -0.0201035 4.69394e-17)
(0.162259 -0.0157961 3.6285e-17)
(0.132899 -0.00932754 3.60833e-17)
(0.0994718 -0.00771288 3.32049e-17)
(0.0655919 -0.00707229 3.39558e-17)
(0.0396813 -0.00463874 2.03361e-17)
(0.0206051 -0.00264165 4.00137e-17)
(0.0110498 -0.00156045 2.13647e-17)
(0.00466267 -0.000648553 2.20887e-17)
(0.00193111 -0.000573501 2.27396e-17)
(0.000797768 -0.000968254 2.81515e-17)
(0.00353403 -0.00145368 2.77414e-17)
(0.00469472 -0.00162446 2.82991e-17)
(0.00562365 -0.00168595 4.83407e-17)
(0.0070319 -0.0017003 4.82879e-17)
(0.00837911 -0.00190262 3.63949e-17)
(0.0100104 -0.00223341 3.32391e-17)
(0.010895 -0.00262717 2.58886e-17)
(0.011271 -0.00168345 1.35738e-17)
(0.0107726 -0.00100638 -1.15449e-18)
(0.0099797 -0.00150646 -2.73332e-17)
(0.00930951 -0.00111458 -1.17951e-17)
(0.00787377 -0.00118034 -2.26199e-17)
(0.00650142 -0.000573942 -2.26377e-17)
(0.0057446 -0.000820418 -1.90861e-17)
(0.0053568 -0.000581392 -4.76387e-18)
(0.00396611 -5.69402e-05 1.58929e-19)
(0.00276364 0.000361605 7.99029e-18)
(-7.07388e-05 0.000965092 1.60086e-18)
(-0.00218721 0.00103721 -1.78218e-18)
(-0.00555018 0.00212018 1.37639e-18)
(-0.00868123 0.00275026 3.04808e-18)
(-0.0110122 0.00391787 1.89902e-17)
(-0.0125113 0.00469426 7.98735e-18)
(-0.0149503 0.00677693 -6.09237e-18)
(-0.0174937 0.00826881 -1.1422e-17)
(-0.0216837 0.00860144 -6.92178e-18)
(-0.0278313 0.0084413 5.74988e-19)
(-0.0327845 0.00859189 9.42688e-18)
(-0.0371738 0.00919657 2.82859e-18)
(-0.0406699 0.0101754 9.496e-18)
(-0.0446031 0.0105237 8.77716e-18)
(-0.0452971 0.0114401 1.37522e-17)
(-0.0475791 0.0121715 1.51683e-17)
(-0.0501007 0.0134005 1.94393e-17)
(-0.0525437 0.0145387 2.13836e-17)
(-0.0544269 0.0143014 2.27531e-17)
(-0.0549802 0.0145331 1.94229e-17)
(-0.0555131 0.0116154 1.65529e-17)
(-0.0538286 0.0103156 1.73453e-17)
(-0.0574092 0.00905887 1.31611e-17)
(-0.0564713 0.00906336 1.2346e-17)
(-0.0606214 0.00724761 1.05436e-17)
(-0.062514 0.00307456 1.00687e-17)
(-0.0762456 -0.0119784 1.29542e-17)
(-0.0531524 -0.0188274 1.86751e-17)
(-0.0837799 -0.0605146 2.52547e-17)
(-0.0703574 -0.0598897 2.12831e-17)
(-0.00518358 0.00518396 1.91041e-17)
(0.118636 0.0965848 1.33502e-17)
(0.170647 0.0840572 3.88035e-17)
(0.300076 0.0856272 8.1969e-18)
(0.336076 0.0351763 3.40974e-17)
(0.34742 -0.126736 4.17179e-17)
(0.647238 -0.0939702 1.88596e-17)
(0.837102 0.126815 5.67019e-17)
(0.785651 0.186689 7.85897e-17)
(0.718543 0.10066 7.74681e-17)
(0.746316 0.00514249 7.53434e-17)
(0.796512 0.0142581 7.10413e-17)
(0.801744 0.0293215 7.55773e-17)
(0.808681 0.0258965 6.47579e-17)
(0.814174 0.023544 8.43241e-17)
(0.826493 0.0233807 6.62106e-17)
(0.828705 0.0238467 5.57511e-17)
(0.844504 0.024645 1.18537e-16)
(0.83962 0.028381 -3.01115e-16)
(0.85594 0.0289933 2.68008e-16)
(0.847106 0.0339639 -3.9613e-16)
(0.861625 0.0339225 -4.10519e-17)
(0.854323 0.0381627 -6.43339e-17)
(0.855543 0.0364959 5.47015e-16)
(0.862415 0.0416178 -4.22875e-16)
(0.863273 0.0301891 -3.04961e-16)
(0.859491 0.0517951 1.75655e-16)
(0.861104 0.030637 -2.5622e-16)
(0.863205 0.0370088 1.92522e-16)
(0.858921 0.0465395 1.42274e-16)
(0.862753 0.0419861 1.12237e-16)
(0.862757 0.0418722 7.13879e-17)
(0.858899 0.0465907 1.48546e-16)
(0.863173 0.0369794 1.99308e-16)
(0.861142 0.0304157 -2.43492e-16)
(0.859469 0.0517994 2.27075e-16)
(0.862731 0.0303559 -9.73902e-16)
(0.863752 0.0413605 -5.02376e-16)
(0.858747 0.0357276 1.72067e-16)
(0.851636 0.0387894 -1.92034e-17)
(0.857612 0.0347327 -5.13158e-17)
(0.849687 0.033435 -3.1954e-16)
(0.85676 0.0287849 2.99055e-16)
(0.840351 0.0283213 -5.17521e-16)
(0.84559 0.0241864 3.6979e-16)
(0.829544 0.023619 -5.09759e-17)
(0.826236 0.0239263 1.26148e-16)
(0.815172 0.0239329 6.37969e-17)
(0.808828 0.0256099 6.80385e-17)
(0.802113 0.0294216 7.17931e-17)
(0.798608 0.017896 7.198e-17)
(0.758749 0.0120153 7.70781e-17)
(0.748226 0.0808282 8.06293e-17)
(0.817867 0.14223 8.56487e-17)
(0.906533 0.110146 8.42338e-17)
(0.880766 -0.034207 6.35609e-17)
(0.553781 -0.05631 3.0236e-17)
(0.60287 0.00812483 4.75324e-17)
(0.597537 0.0428324 4.08376e-17)
(0.576712 0.0437852 3.84936e-17)
(0.605411 0.043374 3.52989e-17)
(0.584341 0.0249049 3.32059e-17)
(0.5869 0.0195552 3.36239e-17)
(0.577461 0.00530052 3.30144e-17)
(0.568737 -0.0010198 3.23317e-17)
(0.552876 -0.00575099 3.28509e-17)
(0.547389 -0.00562877 3.1487e-17)
(0.534596 -0.0116725 3.22446e-17)
(0.525222 -0.0123843 3.21533e-17)
(0.516869 -0.0126202 3.17269e-17)
(0.509101 -0.00906805 3.12278e-17)
(0.500337 -0.0129327 3.14824e-17)
(0.496397 -0.00858233 3.17415e-17)
(0.485633 -0.0101494 3.1211e-17)
(0.481488 -0.0093185 3.19957e-17)
(0.473834 -0.00879135 3.08438e-17)
(0.470451 -0.00941135 3.19124e-17)
(0.461736 -0.00426704 3.04733e-17)
(0.457576 -0.00605859 3.20247e-17)
(0.448198 -0.00724887 3.08312e-17)
(0.450661 -0.00283973 3.09632e-17)
(0.435215 -0.000467999 3.19755e-17)
(0.438051 -0.00476688 3.0206e-17)
(0.430679 -0.000666143 3.15688e-17)
(0.424914 -0.000663868 3.02855e-17)
(0.420176 0.00410932 3.25399e-17)
(0.41893 0.00193279 3.02046e-17)
(0.415106 0.0020884 3.09649e-17)
(0.410828 0.00826278 3.23223e-17)
(0.40379 0.00337911 3.05314e-17)
(0.401794 0.00721206 3.20255e-17)
(0.395686 0.00996589 3.15962e-17)
(0.395082 0.00796584 3.18311e-17)
(0.388761 0.0117231 3.21918e-17)
(0.387796 0.0125899 3.25397e-17)
(0.384369 0.0144375 3.31502e-17)
(0.381061 0.0145931 3.29753e-17)
(0.38263 0.01676 3.43914e-17)
(0.378017 0.0185252 3.46128e-17)
(0.37766 0.0185694 3.52515e-17)
(0.375402 0.0210829 3.68387e-17)
(0.375228 0.0213788 3.73179e-17)
(0.376431 0.0229428 3.83982e-17)
(0.374809 0.0246603 4.01779e-17)
(0.377216 0.0253966 4.12181e-17)
(0.379841 0.0272708 4.33819e-17)
(0.380091 0.0287675 4.50085e-17)
(0.38426 0.0299843 4.66761e-17)
(0.387772 0.0318568 4.85999e-17)
(0.391439 0.0333509 5.04097e-17)
(0.396152 0.0352475 5.2309e-17)
(0.398913 0.036753 5.42396e-17)
(0.404045 0.0386898 5.62478e-17)
(0.407558 0.0406133 5.85052e-17)
(0.414159 0.0424814 5.92053e-17)
(0.419765 0.0445384 6.2422e-17)
(0.425385 0.0460206 6.3694e-17)
(0.434137 0.048385 6.69078e-17)
(0.439381 0.0502924 6.7855e-17)
(0.447664 0.0523049 6.87439e-17)
(0.455008 0.0549163 7.01714e-17)
(0.463503 0.0573793 7.08712e-17)
(0.473786 0.059931 7.25204e-17)
(0.482251 0.0623656 7.19402e-17)
(0.492259 0.0646481 7.08769e-17)
(0.502432 0.0672251 6.98233e-17)
(0.512499 0.0695671 7.01093e-17)
(0.523922 0.0718433 6.79449e-17)
(0.534081 0.0740615 7.0173e-17)
(0.545364 0.0762072 6.68486e-17)
(0.557299 0.0786008 6.77721e-17)
(0.568974 0.0804828 6.84366e-17)
(0.581234 0.0824193 7.00059e-17)
(0.593221 0.0847551 7.36466e-17)
(0.61197 0.0887642 7.59476e-17)
(0.631792 0.089031 7.81821e-17)
(0.640344 0.0862668 8.15064e-17)
(0.647594 0.0870428 8.27784e-17)
(0.66217 0.0900002 8.54947e-17)
(0.679141 0.0906383 8.52402e-17)
(0.695951 0.0908951 8.59e-17)
(0.71291 0.0903335 8.83497e-17)
(0.729809 0.0895318 8.58749e-17)
(0.746387 0.0881192 8.74473e-17)
(0.765684 0.0872362 8.48691e-17)
(0.783682 0.0841457 8.40379e-17)
(0.801874 0.0809196 8.15692e-17)
(0.818584 0.0765818 8.02228e-17)
(0.837137 0.0730353 7.51214e-17)
(0.852569 0.0662948 7.33385e-17)
(0.868781 0.0606296 6.56861e-17)
(0.881786 0.0524233 6.18343e-17)
(0.896079 0.0466212 5.35508e-17)
(0.903833 0.0353665 4.80424e-17)
(0.91433 0.0286667 3.92583e-17)
(0.91256 0.015717 3.31153e-17)
(0.914374 0.00933947 2.44819e-17)
(0.920018 -0.00121691 1.85448e-17)
(0.909837 -0.00965477 1.08465e-17)
(0.912601 -0.0148254 5.96385e-18)
(0.907707 -0.0246481 -2.18655e-19)
(0.903259 -0.0301801 -3.61677e-18)
(0.897769 -0.0374598 -9.05815e-18)
(0.893114 -0.0421056 -1.15003e-17)
(0.888381 -0.047406 -1.51804e-17)
(0.885246 -0.0525941 -1.66017e-17)
(0.880672 -0.0582333 -1.88654e-17)